Program Version,EnergyPlus, Version 9.5.0-de239b2e5f, YMD=2021.12.08 19:49
1,5,Environment Title[],Latitude[deg],Longitude[deg],Time Zone[],Elevation[m]
2,8,Day of Simulation[],Month[],Day of Month[],DST Indicator[1=yes 0=no],Hour[],StartMinute[],EndMinute[],DayType
3,5,Cumulative Day of Simulation[],Month[],Day of Month[],DST Indicator[1=yes 0=no],DayType  ! When Daily Report Variables Requested
4,2,Cumulative Days of Simulation[],Month[]  ! When Monthly Report Variables Requested
5,1,Cumulative Days of Simulation[] ! When Run Period Report Variables Requested
6,1,Calendar Year of Simulation[] ! When Annual Report Variables Requested
148,1,THERMAL ZONE: JORGE,Zone Mean Air Temperature [C] !TimeStep
596,1,JORGE,Zone Thermal Comfort Fanger Model PMV [] !TimeStep
597,1,JORGE,Zone Thermal Comfort Fanger Model PPD [%] !TimeStep
End of Data Dictionary
1,RUN PERIOD 1,  18.85, -99.14,  -6.00,1280.00
2,1, 5, 3, 0, 1, 0.00,10.00,Wednesday
148,27.201346027572578
596,-28.31639571836872
597,100.0
2,1, 5, 3, 0, 1,10.00,20.00,Wednesday
148,27.027072869074947
596,-28.695018144116113
597,100.0
2,1, 5, 3, 0, 1,20.00,30.00,Wednesday
148,26.91952037125685
596,-28.95272901948411
597,100.0
2,1, 5, 3, 0, 1,30.00,40.00,Wednesday
148,26.855879767633863
596,-29.16515661414841
597,100.0
2,1, 5, 3, 0, 1,40.00,50.00,Wednesday
148,26.803419373776536
596,-29.348726818755986
597,100.0
2,1, 5, 3, 0, 1,50.00,60.00,Wednesday
148,26.740100657784696
596,-29.554897110812357
597,100.0
2,1, 5, 3, 0, 2, 0.00,10.00,Wednesday
148,26.67061325762842
596,-29.7714895973236
597,100.0
2,1, 5, 3, 0, 2,10.00,20.00,Wednesday
148,26.62818319907861
596,-29.937316490205789
597,100.0
2,1, 5, 3, 0, 2,20.00,30.00,Wednesday
148,26.532116585622398
596,-30.207480568714855
597,100.0
2,1, 5, 3, 0, 2,30.00,40.00,Wednesday
148,26.49552919340348
596,-30.34794111836517
597,100.0
2,1, 5, 3, 0, 2,40.00,50.00,Wednesday
148,26.454069238242785
596,-30.48871317740383
597,100.0
2,1, 5, 3, 0, 2,50.00,60.00,Wednesday
148,26.41144113552516
596,-30.650883325361837
597,100.0
2,1, 5, 3, 0, 3, 0.00,10.00,Wednesday
148,26.3658524787241
596,-30.82605130695228
597,100.0
2,1, 5, 3, 0, 3,10.00,20.00,Wednesday
148,26.331500687209535
596,-30.954575194750065
597,100.0
2,1, 5, 3, 0, 3,20.00,30.00,Wednesday
148,26.278562901200759
596,-31.117402101853988
597,100.0
2,1, 5, 3, 0, 3,30.00,40.00,Wednesday
148,26.2088015288753
596,-31.333853001495656
597,100.0
2,1, 5, 3, 0, 3,40.00,50.00,Wednesday
148,26.1527090824728
596,-31.502554065136399
597,100.0
2,1, 5, 3, 0, 3,50.00,60.00,Wednesday
148,26.099162224651637
596,-31.695311565605697
597,100.0
2,1, 5, 3, 0, 4, 0.00,10.00,Wednesday
148,26.046156325377788
596,-31.87609796594822
597,100.0
2,1, 5, 3, 0, 4,10.00,20.00,Wednesday
148,25.999853412950107
596,-32.03098136133282
597,100.0
2,1, 5, 3, 0, 4,20.00,30.00,Wednesday
148,25.966646818221635
596,-32.1867809763072
597,100.0
2,1, 5, 3, 0, 4,30.00,40.00,Wednesday
148,25.873263297049684
596,-32.45877477533395
597,100.0
2,1, 5, 3, 0, 4,40.00,50.00,Wednesday
148,25.765965790243905
596,-32.77826651646793
597,100.0
2,1, 5, 3, 0, 4,50.00,60.00,Wednesday
148,25.686367161428597
596,-32.99926483445424
597,100.0
2,1, 5, 3, 0, 5, 0.00,10.00,Wednesday
148,25.65189760719971
596,-33.15717085346265
597,100.0
2,1, 5, 3, 0, 5,10.00,20.00,Wednesday
148,25.620649875503248
596,-33.288474668486077
597,100.0
2,1, 5, 3, 0, 5,20.00,30.00,Wednesday
148,25.58388222542763
596,-33.412251724275019
597,100.0
2,1, 5, 3, 0, 5,30.00,40.00,Wednesday
148,25.540217747559156
596,-33.561174809492019
597,100.0
2,1, 5, 3, 0, 5,40.00,50.00,Wednesday
148,25.52680357432461
596,-33.63304303105791
597,100.0
2,1, 5, 3, 0, 5,50.00,60.00,Wednesday
148,25.46303307538133
596,-33.861605887454398
597,100.0
2,1, 5, 3, 0, 6, 0.00,10.00,Wednesday
148,25.400134788988305
596,-34.05425325673715
597,100.0
2,1, 5, 3, 0, 6,10.00,20.00,Wednesday
148,25.27462051861205
596,-34.43200113869401
597,100.0
2,1, 5, 3, 0, 6,20.00,30.00,Wednesday
148,25.18212026812151
596,-34.679392782476309
597,100.0
2,1, 5, 3, 0, 6,30.00,40.00,Wednesday
148,25.080277921006706
596,-35.01744170748851
597,100.0
2,1, 5, 3, 0, 6,40.00,50.00,Wednesday
148,24.997231330997587
596,-35.246619457019757
597,100.0
2,1, 5, 3, 0, 6,50.00,60.00,Wednesday
148,24.931467950624748
596,-35.46300176722045
597,100.0
2,1, 5, 3, 0, 7, 0.00,10.00,Wednesday
148,24.895232733767967
596,-35.590994033633368
597,100.0
2,1, 5, 3, 0, 7,10.00,20.00,Wednesday
148,24.892066278412974
596,-35.63586316538381
597,100.0
2,1, 5, 3, 0, 7,20.00,30.00,Wednesday
148,24.87285944316046
596,-35.75386074750226
597,100.0
2,1, 5, 3, 0, 7,30.00,40.00,Wednesday
148,24.801062556657198
596,-35.98990470776403
597,100.0
2,1, 5, 3, 0, 7,40.00,50.00,Wednesday
148,24.739729485026385
596,-36.138496245086937
597,100.0
2,1, 5, 3, 0, 7,50.00,60.00,Wednesday
148,24.779406367165266
596,-36.0247160211349
597,100.0
2,1, 5, 3, 0, 8, 0.00,10.00,Wednesday
148,24.81184936528752
596,-35.97420713787051
597,100.0
2,1, 5, 3, 0, 8,10.00,20.00,Wednesday
148,24.79302359442044
596,-36.0337444009875
597,100.0
2,1, 5, 3, 0, 8,20.00,30.00,Wednesday
148,24.829396542620637
596,-35.912795567062
597,100.0
2,1, 5, 3, 0, 8,30.00,40.00,Wednesday
148,24.880000502247748
596,-35.7594571015247
597,100.0
2,1, 5, 3, 0, 8,40.00,50.00,Wednesday
148,24.97823236945112
596,-35.487562982970917
597,100.0
2,1, 5, 3, 0, 8,50.00,60.00,Wednesday
148,25.11594761410147
596,-35.123060323522278
597,100.0
2,1, 5, 3, 0, 9, 0.00,10.00,Wednesday
148,25.222999041911814
596,-34.74500151059473
597,100.0
2,1, 5, 3, 0, 9,10.00,20.00,Wednesday
148,25.342063090246606
596,-34.48365128188606
597,100.0
2,1, 5, 3, 0, 9,20.00,30.00,Wednesday
148,25.441053717010975
596,-34.25144813709539
597,100.0
2,1, 5, 3, 0, 9,30.00,40.00,Wednesday
148,25.514955297941144
596,-34.03665591973065
597,100.0
2,1, 5, 3, 0, 9,40.00,50.00,Wednesday
148,25.59015214238467
596,-33.78404613968807
597,100.0
2,1, 5, 3, 0, 9,50.00,60.00,Wednesday
148,25.671389470108499
596,-33.53841491385142
597,100.0
2,1, 5, 3, 0,10, 0.00,10.00,Wednesday
148,27.71867393537251
596,0.28176123598807176
597,6.648997050202269
2,1, 5, 3, 0,10,10.00,20.00,Wednesday
148,28.09080190016832
596,0.40538559649002456
597,8.42464218168972
2,1, 5, 3, 0,10,20.00,30.00,Wednesday
148,28.37120975446767
596,0.47546709646698478
597,9.721183586365442
2,1, 5, 3, 0,10,30.00,40.00,Wednesday
148,28.869044465730175
596,0.604509323535754
597,12.66321300252767
2,1, 5, 3, 0,10,40.00,50.00,Wednesday
148,29.06430142932809
596,0.6732211303802921
597,14.524374807533292
2,1, 5, 3, 0,10,50.00,60.00,Wednesday
148,29.069762079852933
596,0.6942388890803242
597,15.134524103850055
2,1, 5, 3, 0,11, 0.00,10.00,Wednesday
148,29.104356357115834
596,0.7157461309643295
597,15.778636216959612
2,1, 5, 3, 0,11,10.00,20.00,Wednesday
148,29.24506408634676
596,0.7763890756140011
597,17.701884027212686
2,1, 5, 3, 0,11,20.00,30.00,Wednesday
148,29.3890291986636
596,0.8359354812303467
597,19.74267005198847
2,1, 5, 3, 0,11,30.00,40.00,Wednesday
148,29.507626791083113
596,0.887681659002156
597,21.63658299746257
2,1, 5, 3, 0,11,40.00,50.00,Wednesday
148,29.611101604822826
596,0.935554317032907
597,23.486243139862255
2,1, 5, 3, 0,11,50.00,60.00,Wednesday
148,29.693184942099657
596,0.9722956534546416
597,24.967801995618659
2,1, 5, 3, 0,12, 0.00,10.00,Wednesday
148,29.856783654667024
596,1.0373087501389438
597,27.716670883178496
2,1, 5, 3, 0,12,10.00,20.00,Wednesday
148,29.943496143141326
596,1.0692405814315347
597,29.1240738770465
2,1, 5, 3, 0,12,20.00,30.00,Wednesday
148,30.149291617089
596,1.1517926367053769
597,32.926144807936939
2,1, 5, 3, 0,12,30.00,40.00,Wednesday
148,30.249316923840824
596,1.1934705979570009
597,34.92897576133714
2,1, 5, 3, 0,12,40.00,50.00,Wednesday
148,30.40785642848579
596,1.2575450686160926
597,38.105533105513277
2,1, 5, 3, 0,12,50.00,60.00,Wednesday
148,30.551946753988195
596,1.3143902155308607
597,41.01094415189168
2,1, 5, 3, 0,13, 0.00,10.00,Wednesday
148,30.713558921000876
596,1.3805341394944629
597,44.47719241403468
2,1, 5, 3, 0,13,10.00,20.00,Wednesday
148,30.84804008419455
596,1.4242540285721713
597,46.80857227326346
2,1, 5, 3, 0,13,20.00,30.00,Wednesday
148,30.957725859105847
596,1.4708172130063522
597,49.31770206950596
2,1, 5, 3, 0,13,30.00,40.00,Wednesday
148,31.05923920494134
596,1.5163428691086365
597,51.788611311516209
2,1, 5, 3, 0,13,40.00,50.00,Wednesday
148,31.17680539417455
596,1.5597848743966983
597,54.15469309935394
2,1, 5, 3, 0,13,50.00,60.00,Wednesday
148,31.224476503704297
596,1.5765994116299394
597,55.07097197929185
2,1, 5, 3, 0,14, 0.00,10.00,Wednesday
148,31.21575837149645
596,1.6028870694528626
597,56.50241383539675
2,1, 5, 3, 0,14,10.00,20.00,Wednesday
148,31.331801349130524
596,1.669988573913629
597,60.13909861826687
2,1, 5, 3, 0,14,20.00,30.00,Wednesday
148,31.490817328924025
596,1.7287582775639299
597,63.28527582688386
2,1, 5, 3, 0,14,30.00,40.00,Wednesday
148,31.606596421147928
596,1.7772257419739158
597,65.83755653622552
2,1, 5, 3, 0,14,40.00,50.00,Wednesday
148,31.720748902952957
596,1.8358562693692207
597,68.85687326268939
2,1, 5, 3, 0,14,50.00,60.00,Wednesday
148,31.926103382788868
596,1.9146223846213082
597,72.76426979085702
2,1, 5, 3, 0,15, 0.00,10.00,Wednesday
148,31.788661232831097
596,-21.584533579430376
597,100.0
2,1, 5, 3, 0,15,10.00,20.00,Wednesday
148,31.808295040381127
596,-21.360486521008789
597,100.0
2,1, 5, 3, 0,15,20.00,30.00,Wednesday
148,31.969618782159068
596,-20.69804844046782
597,100.0
2,1, 5, 3, 0,15,30.00,40.00,Wednesday
148,32.098479569141037
596,-20.200659006408338
597,100.0
2,1, 5, 3, 0,15,40.00,50.00,Wednesday
148,32.183538225938
596,-19.96889923021545
597,100.0
2,1, 5, 3, 0,15,50.00,60.00,Wednesday
148,32.29147614513901
596,-19.55509039430742
597,100.0
2,1, 5, 3, 0,16, 0.00,10.00,Wednesday
148,32.408289596030758
596,-19.086443271625919
597,100.0
2,1, 5, 3, 0,16,10.00,20.00,Wednesday
148,32.50899542344295
596,-18.867793836179556
597,100.0
2,1, 5, 3, 0,16,20.00,30.00,Wednesday
148,32.545885550217338
596,-18.759216157839938
597,100.0
2,1, 5, 3, 0,16,30.00,40.00,Wednesday
148,32.64640205671321
596,1.4256836789171983
597,46.88525191068746
2,1, 5, 3, 0,16,40.00,50.00,Wednesday
148,32.731060621634018
596,1.4756011558599332
597,49.57667950942479
2,1, 5, 3, 0,16,50.00,60.00,Wednesday
148,32.62785062211206
596,1.3929223199413559
597,45.134955061530558
2,1, 5, 3, 0,17, 0.00,10.00,Wednesday
148,32.47760333751868
596,2.2642278985920289
597,87.12248865150014
2,1, 5, 3, 0,17,10.00,20.00,Wednesday
148,32.36099152682098
596,2.231540088223273
597,86.02452843054053
2,1, 5, 3, 0,17,20.00,30.00,Wednesday
148,32.255536386369119
596,2.200352714823133
597,84.92649614387108
2,1, 5, 3, 0,17,30.00,40.00,Wednesday
148,32.1129790844209
596,2.178870241007702
597,84.14182296571176
2,1, 5, 3, 0,17,40.00,50.00,Wednesday
148,32.03853143014427
596,2.171045821941932
597,83.85034747888948
2,1, 5, 3, 0,17,50.00,60.00,Wednesday
148,32.111920090267918
596,2.194622758493367
597,84.7194482942733
2,1, 5, 3, 0,18, 0.00,10.00,Wednesday
148,32.111163566260277
596,2.200136396716662
597,84.91870943377464
2,1, 5, 3, 0,18,10.00,20.00,Wednesday
148,32.0612106220285
596,2.189951488980734
597,84.54944400121055
2,1, 5, 3, 0,18,20.00,30.00,Wednesday
148,32.037373244385509
596,2.191837249702609
597,84.61820437157215
2,1, 5, 3, 0,18,30.00,40.00,Wednesday
148,32.04702054000456
596,2.203122568811236
597,85.02599450442955
2,1, 5, 3, 0,18,40.00,50.00,Wednesday
148,32.088863248681658
596,2.225534372683042
597,85.81689539765068
2,1, 5, 3, 0,18,50.00,60.00,Wednesday
148,32.12414101549025
596,2.2438686205804769
597,86.44502549463701
2,1, 5, 3, 0,19, 0.00,10.00,Wednesday
148,30.681043960048585
596,-18.76165750058924
597,100.0
2,1, 5, 3, 0,19,10.00,20.00,Wednesday
148,30.206341165407588
596,-19.588924084510017
597,100.0
2,1, 5, 3, 0,19,20.00,30.00,Wednesday
148,29.938466376029746
596,-20.09984288685771
597,100.0
2,1, 5, 3, 0,19,30.00,40.00,Wednesday
148,29.423068170741077
596,-20.859619105087693
597,100.0
2,1, 5, 3, 0,19,40.00,50.00,Wednesday
148,29.17823724183666
596,-21.30715699933134
597,100.0
2,1, 5, 3, 0,19,50.00,60.00,Wednesday
148,29.124004316883629
596,-21.566321313682907
597,100.0
2,1, 5, 3, 0,20, 0.00,10.00,Wednesday
148,29.10058525238722
596,-21.708492527103436
597,100.0
2,1, 5, 3, 0,20,10.00,20.00,Wednesday
148,29.0399938637782
596,-21.903204829364865
597,100.0
2,1, 5, 3, 0,20,20.00,30.00,Wednesday
148,28.970278065965535
596,-22.11420781454437
597,100.0
2,1, 5, 3, 0,20,30.00,40.00,Wednesday
148,28.88320633252165
596,-22.326082324913594
597,100.0
2,1, 5, 3, 0,20,40.00,50.00,Wednesday
148,28.783471893827273
596,-22.618008271293914
597,100.0
2,1, 5, 3, 0,20,50.00,60.00,Wednesday
148,28.69389158670841
596,-22.90899105668722
597,100.0
2,1, 5, 3, 0,21, 0.00,10.00,Wednesday
148,28.641320777845878
596,-23.11790398307701
597,100.0
2,1, 5, 3, 0,21,10.00,20.00,Wednesday
148,28.582918311503709
596,-23.280578697001123
597,100.0
2,1, 5, 3, 0,21,20.00,30.00,Wednesday
148,28.501983039108898
596,-23.553918626574324
597,100.0
2,1, 5, 3, 0,21,30.00,40.00,Wednesday
148,28.428462477773338
596,-23.81019780961509
597,100.0
2,1, 5, 3, 0,21,40.00,50.00,Wednesday
148,28.381757032756569
596,-23.995395786862955
597,100.0
2,1, 5, 3, 0,21,50.00,60.00,Wednesday
148,28.3048423097969
596,-24.30647547333541
597,100.0
2,1, 5, 3, 0,22, 0.00,10.00,Wednesday
148,28.249235163952059
596,-24.521390741341944
597,100.0
2,1, 5, 3, 0,22,10.00,20.00,Wednesday
148,28.193217445869217
596,-24.782627416542689
597,100.0
2,1, 5, 3, 0,22,20.00,30.00,Wednesday
148,28.11596140957023
596,-25.081244189601436
597,100.0
2,1, 5, 3, 0,22,30.00,40.00,Wednesday
148,28.026041301483799
596,-25.3372170000763
597,100.0
2,1, 5, 3, 0,22,40.00,50.00,Wednesday
148,27.96103733581888
596,-25.546118884712283
597,100.0
2,1, 5, 3, 0,22,50.00,60.00,Wednesday
148,27.899284122993835
596,-25.794901624646138
597,100.0
2,1, 5, 3, 0,23, 0.00,10.00,Wednesday
148,27.875896755294585
596,-25.923374412427568
597,100.0
2,1, 5, 3, 0,23,10.00,20.00,Wednesday
148,27.84477493966802
596,-26.003877466102794
597,100.0
2,1, 5, 3, 0,23,20.00,30.00,Wednesday
148,27.795446800427745
596,-26.199249878661758
597,100.0
2,1, 5, 3, 0,23,30.00,40.00,Wednesday
148,27.74172535704729
596,-26.424767050140806
597,100.0
2,1, 5, 3, 0,23,40.00,50.00,Wednesday
148,27.668711937397004
596,-26.63189237552497
597,100.0
2,1, 5, 3, 0,23,50.00,60.00,Wednesday
148,27.64345480281172
596,-26.72065647427738
597,100.0
2,1, 5, 3, 0,24, 0.00,10.00,Wednesday
148,27.610127317504217
596,-26.843862670757657
597,100.0
2,1, 5, 3, 0,24,10.00,20.00,Wednesday
148,27.55819850714774
596,-27.01633020348595
597,100.0
2,1, 5, 3, 0,24,20.00,30.00,Wednesday
148,27.503498890160406
596,-27.192742960474317
597,100.0
2,1, 5, 3, 0,24,30.00,40.00,Wednesday
148,27.46070976091288
596,-27.338624520102717
597,100.0
2,1, 5, 3, 0,24,40.00,50.00,Wednesday
148,27.418846793388867
596,-27.493683950743429
597,100.0
2,1, 5, 3, 0,24,50.00,60.00,Wednesday
148,27.384156147130005
596,-27.629414427449185
597,100.0
2,2, 5, 4, 0, 1, 0.00,10.00,Thursday
148,27.360737245408907
596,-27.75982217319022
597,100.0
2,2, 5, 4, 0, 1,10.00,20.00,Thursday
148,27.284558963376417
596,-28.004427721519997
597,100.0
2,2, 5, 4, 0, 1,20.00,30.00,Thursday
148,27.20403420277839
596,-28.226638535888055
597,100.0
2,2, 5, 4, 0, 1,30.00,40.00,Thursday
148,27.124539220083347
596,-28.469371113153984
597,100.0
2,2, 5, 4, 0, 1,40.00,50.00,Thursday
148,27.072237318302326
596,-28.62522655953094
597,100.0
2,2, 5, 4, 0, 1,50.00,60.00,Thursday
148,27.038693955307449
596,-28.754358010930387
597,100.0
2,2, 5, 4, 0, 2, 0.00,10.00,Thursday
148,27.008446380495234
596,-28.87577595638743
597,100.0
2,2, 5, 4, 0, 2,10.00,20.00,Thursday
148,26.9706771951768
596,-29.01503598012366
597,100.0
2,2, 5, 4, 0, 2,20.00,30.00,Thursday
148,26.93635177375175
596,-29.129147646685618
597,100.0
2,2, 5, 4, 0, 2,30.00,40.00,Thursday
148,26.898986213553223
596,-29.266986557938155
597,100.0
2,2, 5, 4, 0, 2,40.00,50.00,Thursday
148,26.8614571254554
596,-29.395131839606994
597,100.0
2,2, 5, 4, 0, 2,50.00,60.00,Thursday
148,26.82158454733154
596,-29.538102760121587
597,100.0
2,2, 5, 4, 0, 3, 0.00,10.00,Thursday
148,26.773325912135804
596,-29.706193630740768
597,100.0
2,2, 5, 4, 0, 3,10.00,20.00,Thursday
148,26.703405964840714
596,-29.932258215379897
597,100.0
2,2, 5, 4, 0, 3,20.00,30.00,Thursday
148,26.660788813614685
596,-30.092726900659608
597,100.0
2,2, 5, 4, 0, 3,30.00,40.00,Thursday
148,26.5860689270769
596,-30.311364912086654
597,100.0
2,2, 5, 4, 0, 3,40.00,50.00,Thursday
148,26.505291593212428
596,-30.523293655398829
597,100.0
2,2, 5, 4, 0, 3,50.00,60.00,Thursday
148,26.462491792356866
596,-30.697804682911938
597,100.0
2,2, 5, 4, 0, 4, 0.00,10.00,Thursday
148,26.378870217475467
596,-30.950282295779166
597,100.0
2,2, 5, 4, 0, 4,10.00,20.00,Thursday
148,26.27102265192979
596,-31.237507405906418
597,100.0
2,2, 5, 4, 0, 4,20.00,30.00,Thursday
148,26.224295926202779
596,-31.408818331164747
597,100.0
2,2, 5, 4, 0, 4,30.00,40.00,Thursday
148,26.14843609838892
596,-31.63015637243143
597,100.0
2,2, 5, 4, 0, 4,40.00,50.00,Thursday
148,26.06771896791861
596,-31.837755719629319
597,100.0
2,2, 5, 4, 0, 4,50.00,60.00,Thursday
148,26.054816905676199
596,-31.909875518080633
597,100.0
2,2, 5, 4, 0, 5, 0.00,10.00,Thursday
148,25.973852155069289
596,-32.16738178003402
597,100.0
2,2, 5, 4, 0, 5,10.00,20.00,Thursday
148,25.88645083421975
596,-32.41258423504904
597,100.0
2,2, 5, 4, 0, 5,20.00,30.00,Thursday
148,25.83849518194121
596,-32.54088581308484
597,100.0
2,2, 5, 4, 0, 5,30.00,40.00,Thursday
148,25.817964064163708
596,-32.64370204205526
597,100.0
2,2, 5, 4, 0, 5,40.00,50.00,Thursday
148,25.784830709544648
596,-32.80482020659826
597,100.0
2,2, 5, 4, 0, 5,50.00,60.00,Thursday
148,25.719569560164798
596,-33.009988375167988
597,100.0
2,2, 5, 4, 0, 6, 0.00,10.00,Thursday
148,25.66508206872231
596,-33.15330568601861
597,100.0
2,2, 5, 4, 0, 6,10.00,20.00,Thursday
148,25.57746215814782
596,-33.45215982596128
597,100.0
2,2, 5, 4, 0, 6,20.00,30.00,Thursday
148,25.53595251138578
596,-33.601872027635589
597,100.0
2,2, 5, 4, 0, 6,30.00,40.00,Thursday
148,25.445365742781975
596,-33.895373465279188
597,100.0
2,2, 5, 4, 0, 6,40.00,50.00,Thursday
148,25.341334959765619
596,-34.164517960464589
597,100.0
2,2, 5, 4, 0, 6,50.00,60.00,Thursday
148,25.293139764527206
596,-34.279768069280219
597,100.0
2,2, 5, 4, 0, 7, 0.00,10.00,Thursday
148,25.311164338496398
596,-34.287294382146509
597,100.0
2,2, 5, 4, 0, 7,10.00,20.00,Thursday
148,25.324489413463274
596,-34.30228076516977
597,100.0
2,2, 5, 4, 0, 7,20.00,30.00,Thursday
148,25.290033262146303
596,-34.42782856115709
597,100.0
2,2, 5, 4, 0, 7,30.00,40.00,Thursday
148,25.27078372864982
596,-34.51475318072417
597,100.0
2,2, 5, 4, 0, 7,40.00,50.00,Thursday
148,25.257745448123054
596,-34.54418726433191
597,100.0
2,2, 5, 4, 0, 7,50.00,60.00,Thursday
148,25.252375292611366
596,-34.565343036115859
597,100.0
2,2, 5, 4, 0, 8, 0.00,10.00,Thursday
148,25.250851056473026
596,-34.58563461504463
597,100.0
2,2, 5, 4, 0, 8,10.00,20.00,Thursday
148,25.26088812672935
596,-34.564480500828818
597,100.0
2,2, 5, 4, 0, 8,20.00,30.00,Thursday
148,25.275279701534218
596,-34.52698456111594
597,100.0
2,2, 5, 4, 0, 8,30.00,40.00,Thursday
148,25.31425105491439
596,-34.39517676078365
597,100.0
2,2, 5, 4, 0, 8,40.00,50.00,Thursday
148,25.39340079742159
596,-34.16328240772181
597,100.0
2,2, 5, 4, 0, 8,50.00,60.00,Thursday
148,25.50041528535826
596,-33.895947456952637
597,100.0
2,2, 5, 4, 0, 9, 0.00,10.00,Thursday
148,25.550287265325396
596,-33.73861289524297
597,100.0
2,2, 5, 4, 0, 9,10.00,20.00,Thursday
148,25.60333212467661
596,-33.6515892701079
597,100.0
2,2, 5, 4, 0, 9,20.00,30.00,Thursday
148,25.69894543462331
596,-33.33302389025119
597,100.0
2,2, 5, 4, 0, 9,30.00,40.00,Thursday
148,25.813035639575096
596,-33.02307319870495
597,100.0
2,2, 5, 4, 0, 9,40.00,50.00,Thursday
148,25.921038497522117
596,-32.70202188735464
597,100.0
2,2, 5, 4, 0, 9,50.00,60.00,Thursday
148,25.98196165705648
596,-32.59113324264056
597,100.0
2,2, 5, 4, 0,10, 0.00,10.00,Thursday
148,27.9393476181783
596,0.3553254954516196
597,7.627328250482947
2,2, 5, 4, 0,10,10.00,20.00,Thursday
148,28.214931800869164
596,0.4510045452136786
597,9.244628417555206
2,2, 5, 4, 0,10,20.00,30.00,Thursday
148,28.490470347606256
596,0.5243578514744939
597,10.750998846514137
2,2, 5, 4, 0,10,30.00,40.00,Thursday
148,28.932207904179387
596,0.6351502501506342
597,13.467872403478765
2,2, 5, 4, 0,10,40.00,50.00,Thursday
148,29.1069196350762
596,0.7002954329092688
597,15.313890193945796
2,2, 5, 4, 0,10,50.00,60.00,Thursday
148,29.1587032998502
596,0.7394660398129841
597,16.512119547000269
2,2, 5, 4, 0,11, 0.00,10.00,Thursday
148,29.23336530287448
596,0.7803043207316575
597,17.831457283002693
2,2, 5, 4, 0,11,10.00,20.00,Thursday
148,29.338821217851547
596,0.8260610718787116
597,19.3939171253825
2,2, 5, 4, 0,11,20.00,30.00,Thursday
148,29.418059877354908
596,0.859768970954065
597,20.601208802372399
2,2, 5, 4, 0,11,30.00,40.00,Thursday
148,29.55833054824778
596,0.9162636640043607
597,22.729789301251388
2,2, 5, 4, 0,11,40.00,50.00,Thursday
148,29.68877139591831
596,0.9613165978796132
597,24.5195327339608
2,2, 5, 4, 0,11,50.00,60.00,Thursday
148,29.787370429416144
596,1.010690826657992
597,26.571957496220095
2,2, 5, 4, 0,12, 0.00,10.00,Thursday
148,29.961984501764304
596,1.080895458563074
597,29.64681728774437
2,2, 5, 4, 0,12,10.00,20.00,Thursday
148,30.09357794993645
596,1.1278490452280903
597,31.80004477962426
2,2, 5, 4, 0,12,20.00,30.00,Thursday
148,30.220247070848367
596,1.1821679634438192
597,34.38064036149558
2,2, 5, 4, 0,12,30.00,40.00,Thursday
148,30.41380729084403
596,1.2482697637085738
597,37.63888122959181
2,2, 5, 4, 0,12,40.00,50.00,Thursday
148,30.471371453812315
596,1.2752059912491845
597,39.00004155340523
2,2, 5, 4, 0,12,50.00,60.00,Thursday
148,30.51356407441184
596,1.2934101322953156
597,39.929919678325159
2,2, 5, 4, 0,13, 0.00,10.00,Thursday
148,30.674749336143493
596,1.3613400036928823
597,43.46302207282969
2,2, 5, 4, 0,13,10.00,20.00,Thursday
148,30.857703245039475
596,1.4367023394512393
597,47.47707237553023
2,2, 5, 4, 0,13,20.00,30.00,Thursday
148,30.97006894463123
596,1.4783164169236183
597,49.72375140064684
2,2, 5, 4, 0,13,30.00,40.00,Thursday
148,31.09175674071438
596,1.5225242241047639
597,52.124974927354219
2,2, 5, 4, 0,13,40.00,50.00,Thursday
148,31.190649580460119
596,1.56144965920311
597,54.24541921568171
2,2, 5, 4, 0,13,50.00,60.00,Thursday
148,31.33480886670789
596,1.6181332952029355
597,57.33142101554376
2,2, 5, 4, 0,14, 0.00,10.00,Thursday
148,31.41709755613308
596,1.66546122125956
597,59.89492450591612
2,2, 5, 4, 0,14,10.00,20.00,Thursday
148,31.47524338351083
596,1.691080304032714
597,61.27357198450827
2,2, 5, 4, 0,14,20.00,30.00,Thursday
148,31.527294793726019
596,1.713143245253568
597,62.45412271901835
2,2, 5, 4, 0,14,30.00,40.00,Thursday
148,31.580022585981675
596,1.7350182767611289
597,63.617362428553359
2,2, 5, 4, 0,14,40.00,50.00,Thursday
148,31.61864413202429
596,1.751156801310418
597,64.47031458140006
2,2, 5, 4, 0,14,50.00,60.00,Thursday
148,31.780616315530897
596,1.827371536184516
597,68.42521730525944
2,2, 5, 4, 0,15, 0.00,10.00,Thursday
148,31.875187822442589
596,-21.327573538788785
597,100.0
2,2, 5, 4, 0,15,10.00,20.00,Thursday
148,31.88804759985259
596,-21.297085939129276
597,100.0
2,2, 5, 4, 0,15,20.00,30.00,Thursday
148,31.909673002577713
596,-21.240949040580678
597,100.0
2,2, 5, 4, 0,15,30.00,40.00,Thursday
148,31.932190837734589
596,-21.231670569766466
597,100.0
2,2, 5, 4, 0,15,40.00,50.00,Thursday
148,31.96449888285854
596,-21.09132084999657
597,100.0
2,2, 5, 4, 0,15,50.00,60.00,Thursday
148,32.05926689502445
596,-20.70616395320532
597,100.0
2,2, 5, 4, 0,16, 0.00,10.00,Thursday
148,32.195230197561347
596,-20.125723015552894
597,100.0
2,2, 5, 4, 0,16,10.00,20.00,Thursday
148,32.333039459729189
596,-19.59366417782494
597,100.0
2,2, 5, 4, 0,16,20.00,30.00,Thursday
148,32.47418320906315
596,-19.231280272839123
597,100.0
2,2, 5, 4, 0,16,30.00,40.00,Thursday
148,32.587028244497307
596,1.3510215974927736
597,42.920486013799798
2,2, 5, 4, 0,16,40.00,50.00,Thursday
148,32.60892716704164
596,1.3513453194082504
597,42.93747759641977
2,2, 5, 4, 0,16,50.00,60.00,Thursday
148,32.61698616654864
596,1.3558055061868442
597,43.171781118589347
2,2, 5, 4, 0,17, 0.00,10.00,Thursday
148,32.64701039261239
596,2.2708636936770736
597,87.33872147446262
2,2, 5, 4, 0,17,10.00,20.00,Thursday
148,32.691255843410058
596,2.291835976321321
597,88.0072869227697
2,2, 5, 4, 0,17,20.00,30.00,Thursday
148,32.670974905774489
596,2.286768445181668
597,87.84780838352317
2,2, 5, 4, 0,17,30.00,40.00,Thursday
148,32.719024196165047
596,2.3180231627125615
597,88.8104030180586
2,2, 5, 4, 0,17,40.00,50.00,Thursday
148,32.71657903462669
596,2.3161733473573697
597,88.75482828416972
2,2, 5, 4, 0,17,50.00,60.00,Thursday
148,32.70272104987006
596,2.310502127542665
597,88.58335048546579
2,2, 5, 4, 0,18, 0.00,10.00,Thursday
148,32.6707726709346
596,2.3056698390974317
597,88.43593575690415
2,2, 5, 4, 0,18,10.00,20.00,Thursday
148,32.689856894687618
596,2.3181937802115519
597,88.81552009745883
2,2, 5, 4, 0,18,20.00,30.00,Thursday
148,32.73540218863225
596,2.3394575361907794
597,89.44155885710393
2,2, 5, 4, 0,18,30.00,40.00,Thursday
148,32.81436280969305
596,2.3712310180309568
597,90.3338888116969
2,2, 5, 4, 0,18,40.00,50.00,Thursday
148,32.86875159366046
596,2.394844222498518
597,90.96376016302284
2,2, 5, 4, 0,18,50.00,60.00,Thursday
148,32.83841551579723
596,2.3898876052976427
597,90.83388614704492
2,2, 5, 4, 0,19, 0.00,10.00,Thursday
148,31.363664578804618
596,-17.20226307639867
597,100.0
2,2, 5, 4, 0,19,10.00,20.00,Thursday
148,30.867342030327163
596,-18.028138996737068
597,100.0
2,2, 5, 4, 0,19,20.00,30.00,Thursday
148,30.642585049896068
596,-18.32384116125757
597,100.0
2,2, 5, 4, 0,19,30.00,40.00,Thursday
148,30.151516042136885
596,-19.069446987887223
597,100.0
2,2, 5, 4, 0,19,40.00,50.00,Thursday
148,30.004609328782516
596,-19.382845017028239
597,100.0
2,2, 5, 4, 0,19,50.00,60.00,Thursday
148,29.952289070270625
596,-19.631183836338857
597,100.0
2,2, 5, 4, 0,20, 0.00,10.00,Thursday
148,29.887429704752369
596,-19.834477243759449
597,100.0
2,2, 5, 4, 0,20,10.00,20.00,Thursday
148,29.805064522164306
596,-20.064780683949427
597,100.0
2,2, 5, 4, 0,20,20.00,30.00,Thursday
148,29.7221544059942
596,-20.29801461691835
597,100.0
2,2, 5, 4, 0,20,30.00,40.00,Thursday
148,29.649123069342108
596,-20.504666369638675
597,100.0
2,2, 5, 4, 0,20,40.00,50.00,Thursday
148,29.582992426964525
596,-20.698632736510225
597,100.0
2,2, 5, 4, 0,20,50.00,60.00,Thursday
148,29.53081293419451
596,-20.842042346942216
597,100.0
2,2, 5, 4, 0,21, 0.00,10.00,Thursday
148,29.482409922420353
596,-20.99496529262638
597,100.0
2,2, 5, 4, 0,21,10.00,20.00,Thursday
148,29.437917408735506
596,-21.126278749920599
597,100.0
2,2, 5, 4, 0,21,20.00,30.00,Thursday
148,29.38737775779636
596,-21.287624317202483
597,100.0
2,2, 5, 4, 0,21,30.00,40.00,Thursday
148,29.3453624342483
596,-21.400564148219617
597,100.0
2,2, 5, 4, 0,21,40.00,50.00,Thursday
148,29.30704287547601
596,-21.52763314924576
597,100.0
2,2, 5, 4, 0,21,50.00,60.00,Thursday
148,29.252507708540337
596,-21.71087203205289
597,100.0
2,2, 5, 4, 0,22, 0.00,10.00,Thursday
148,29.20239601003454
596,-21.88029536051761
597,100.0
2,2, 5, 4, 0,22,10.00,20.00,Thursday
148,29.143730818898008
596,-22.02274342574275
597,100.0
2,2, 5, 4, 0,22,20.00,30.00,Thursday
148,29.05808079272803
596,-22.275852863688848
597,100.0
2,2, 5, 4, 0,22,30.00,40.00,Thursday
148,29.009439665867416
596,-22.36341874948321
597,100.0
2,2, 5, 4, 0,22,40.00,50.00,Thursday
148,28.980063872754923
596,-22.4850583957802
597,100.0
2,2, 5, 4, 0,22,50.00,60.00,Thursday
148,28.94075891563831
596,-22.63422007511321
597,100.0
2,2, 5, 4, 0,23, 0.00,10.00,Thursday
148,28.88831498185323
596,-22.787840596685429
597,100.0
2,2, 5, 4, 0,23,10.00,20.00,Thursday
148,28.81860146013236
596,-23.017434635797103
597,100.0
2,2, 5, 4, 0,23,20.00,30.00,Thursday
148,28.743444029001365
596,-23.239913549644585
597,100.0
2,2, 5, 4, 0,23,30.00,40.00,Thursday
148,28.694258757272047
596,-23.42874877571182
597,100.0
2,2, 5, 4, 0,23,40.00,50.00,Thursday
148,28.616880505733925
596,-23.647163590875875
597,100.0
2,2, 5, 4, 0,23,50.00,60.00,Thursday
148,28.551686101806728
596,-23.79614461225275
597,100.0
2,2, 5, 4, 0,24, 0.00,10.00,Thursday
148,28.51722606158007
596,-23.89917642603011
597,100.0
2,2, 5, 4, 0,24,10.00,20.00,Thursday
148,28.487536699470227
596,-24.023832871598488
597,100.0
2,2, 5, 4, 0,24,20.00,30.00,Thursday
148,28.448369139288844
596,-24.167501691817475
597,100.0
2,2, 5, 4, 0,24,30.00,40.00,Thursday
148,28.399241532506353
596,-24.330656628464476
597,100.0
2,2, 5, 4, 0,24,40.00,50.00,Thursday
148,28.339919770538807
596,-24.557927260603927
597,100.0
2,2, 5, 4, 0,24,50.00,60.00,Thursday
148,28.26329343101452
596,-24.75322278649553
597,100.0
2,3, 5, 5, 0, 1, 0.00,10.00,Friday
148,28.176986761549256
596,-24.997811921794459
597,100.0
2,3, 5, 5, 0, 1,10.00,20.00,Friday
148,28.155188012442843
596,-25.081485856662665
597,100.0
2,3, 5, 5, 0, 1,20.00,30.00,Friday
148,28.091054783396694
596,-25.263364576193678
597,100.0
2,3, 5, 5, 0, 1,30.00,40.00,Friday
148,28.04324003521312
596,-25.400041670881604
597,100.0
2,3, 5, 5, 0, 1,40.00,50.00,Friday
148,28.00675477412735
596,-25.56532224367707
597,100.0
2,3, 5, 5, 0, 1,50.00,60.00,Friday
148,27.95685640287666
596,-25.706226364970119
597,100.0
2,3, 5, 5, 0, 2, 0.00,10.00,Friday
148,27.89107722799158
596,-25.906990584344375
597,100.0
2,3, 5, 5, 0, 2,10.00,20.00,Friday
148,27.810441229030788
596,-26.159933605108365
597,100.0
2,3, 5, 5, 0, 2,20.00,30.00,Friday
148,27.721814043217746
596,-26.426076446303445
597,100.0
2,3, 5, 5, 0, 2,30.00,40.00,Friday
148,27.62812956161256
596,-26.750303490971253
597,100.0
2,3, 5, 5, 0, 2,40.00,50.00,Friday
148,27.49999960214214
596,-27.10253888649325
597,100.0
2,3, 5, 5, 0, 2,50.00,60.00,Friday
148,27.424329182678514
596,-27.347907836225735
597,100.0
2,3, 5, 5, 0, 3, 0.00,10.00,Friday