Program Version,EnergyPlus, Version 9.5.0-de239b2e5f, YMD=2021.12.09 14:15
1,5,Environment Title[],Latitude[deg],Longitude[deg],Time Zone[],Elevation[m]
2,8,Day of Simulation[],Month[],Day of Month[],DST Indicator[1=yes 0=no],Hour[],StartMinute[],EndMinute[],DayType
3,5,Cumulative Day of Simulation[],Month[],Day of Month[],DST Indicator[1=yes 0=no],DayType  ! When Daily Report Variables Requested
4,2,Cumulative Days of Simulation[],Month[]  ! When Monthly Report Variables Requested
5,1,Cumulative Days of Simulation[] ! When Run Period Report Variables Requested
6,1,Calendar Year of Simulation[] ! When Annual Report Variables Requested
148,1,THERMAL ZONE: JORGE,Zone Mean Air Temperature [C] !TimeStep
596,1,JORGE,Zone Thermal Comfort Fanger Model PMV [] !TimeStep
597,1,JORGE,Zone Thermal Comfort Fanger Model PPD [%] !TimeStep
End of Data Dictionary
1,RUN PERIOD 1,  18.85, -99.14,  -6.00,1280.00
2,1, 5, 3, 0, 1, 0.00,10.00,Wednesday
148,27.205089172305195
596,-28.115887564447
597,100.0
2,1, 5, 3, 0, 1,10.00,20.00,Wednesday
148,27.03006417062338
596,-28.49441449295543
597,100.0
2,1, 5, 3, 0, 1,20.00,30.00,Wednesday
148,26.92203875695432
596,-28.75491155564888
597,100.0
2,1, 5, 3, 0, 1,30.00,40.00,Wednesday
148,26.858204084174799
596,-28.970032190741877
597,100.0
2,1, 5, 3, 0, 1,40.00,50.00,Wednesday
148,26.806019680665107
596,-29.155382785250329
597,100.0
2,1, 5, 3, 0, 1,50.00,60.00,Wednesday
148,26.74307048658422
596,-29.363136280723457
597,100.0
2,1, 5, 3, 0, 2, 0.00,10.00,Wednesday
148,26.673740597179895
596,-29.581784850177657
597,100.0
2,1, 5, 3, 0, 2,10.00,20.00,Wednesday
148,26.631174805546786
596,-29.7487625344528
597,100.0
2,1, 5, 3, 0, 2,20.00,30.00,Wednesday
148,26.53501335740101
596,-30.022160482954246
597,100.0
2,1, 5, 3, 0, 2,30.00,40.00,Wednesday
148,26.498389661217705
596,-30.164184797772668
597,100.0
2,1, 5, 3, 0, 2,40.00,50.00,Wednesday
148,26.456882199697217
596,-30.307356184384707
597,100.0
2,1, 5, 3, 0, 2,50.00,60.00,Wednesday
148,26.415081449613134
596,-30.468924449695117
597,100.0
2,1, 5, 3, 0, 3, 0.00,10.00,Wednesday
148,26.36894356276899
596,-30.645989268337634
597,100.0
2,1, 5, 3, 0, 3,10.00,20.00,Wednesday
148,26.33399357247024
596,-30.77643027337811
597,100.0
2,1, 5, 3, 0, 3,20.00,30.00,Wednesday
148,26.280570176829007
596,-30.94160215592827
597,100.0
2,1, 5, 3, 0, 3,30.00,40.00,Wednesday
148,26.210597244191925
596,-31.16038808578371
597,100.0
2,1, 5, 3, 0, 3,40.00,50.00,Wednesday
148,26.154413924593034
596,-31.33132924336483
597,100.0
2,1, 5, 3, 0, 3,50.00,60.00,Wednesday
148,26.100803705512698
596,-31.526292846346214
597,100.0
2,1, 5, 3, 0, 4, 0.00,10.00,Wednesday
148,26.04765238831087
596,-31.709308891237737
597,100.0
2,1, 5, 3, 0, 4,10.00,20.00,Wednesday
148,26.001765985553594
596,-31.86519154687624
597,100.0
2,1, 5, 3, 0, 4,20.00,30.00,Wednesday
148,25.968184545650695
596,-32.02216977949684
597,100.0
2,1, 5, 3, 0, 4,30.00,40.00,Wednesday
148,25.874952069621693
596,-32.29606089662642
597,100.0
2,1, 5, 3, 0, 4,40.00,50.00,Wednesday
148,25.768065219944395
596,-32.61747795541821
597,100.0
2,1, 5, 3, 0, 4,50.00,60.00,Wednesday
148,25.688526735749034
596,-32.84116638108781
597,100.0
2,1, 5, 3, 0, 5, 0.00,10.00,Wednesday
148,25.65401705206369
596,-33.00014760573396
597,100.0
2,1, 5, 3, 0, 5,10.00,20.00,Wednesday
148,25.622919769410275
596,-33.131951760748908
597,100.0
2,1, 5, 3, 0, 5,20.00,30.00,Wednesday
148,25.58605856668527
596,-33.2570086918141
597,100.0
2,1, 5, 3, 0, 5,30.00,40.00,Wednesday
148,25.541941482154788
596,-33.408271973235127
597,100.0
2,1, 5, 3, 0, 5,40.00,50.00,Wednesday
148,25.528624313486938
596,-33.48048062683555
597,100.0
2,1, 5, 3, 0, 5,50.00,60.00,Wednesday
148,25.465057727397278
596,-33.709771699271957
597,100.0
2,1, 5, 3, 0, 6, 0.00,10.00,Wednesday
148,25.402120801567123
596,-33.90362695018343
597,100.0
2,1, 5, 3, 0, 6,10.00,20.00,Wednesday
148,25.27660429246034
596,-34.28365933677002
597,100.0
2,1, 5, 3, 0, 6,20.00,30.00,Wednesday
148,25.184109958764329
596,-34.5333037109169
597,100.0
2,1, 5, 3, 0, 6,30.00,40.00,Wednesday
148,25.082228487519534
596,-34.87362762585984
597,100.0
2,1, 5, 3, 0, 6,40.00,50.00,Wednesday
148,24.99912482969323
596,-35.10508755990585
597,100.0
2,1, 5, 3, 0, 6,50.00,60.00,Wednesday
148,24.933316120486745
596,-35.323777393784208
597,100.0
2,1, 5, 3, 0, 7, 0.00,10.00,Wednesday
148,24.897064496930388
596,-35.45378901672562
597,100.0
2,1, 5, 3, 0, 7,10.00,20.00,Wednesday
148,24.893941387208075
596,-35.500279066947417
597,100.0
2,1, 5, 3, 0, 7,20.00,30.00,Wednesday
148,24.87467426380263
596,-35.618606575703967
597,100.0
2,1, 5, 3, 0, 7,30.00,40.00,Wednesday
148,24.802839274878907
596,-35.85583875902359
597,100.0
2,1, 5, 3, 0, 7,40.00,50.00,Wednesday
148,24.741468841015256
596,-36.006260823545179
597,100.0
2,1, 5, 3, 0, 7,50.00,60.00,Wednesday
148,24.780810199009346
596,-35.89350280937453
597,100.0
2,1, 5, 3, 0, 8, 0.00,10.00,Wednesday
148,24.81329796970199
596,-35.8443275610211
597,100.0
2,1, 5, 3, 0, 8,10.00,20.00,Wednesday
148,24.794558415358016
596,-35.90446646597115
597,100.0
2,1, 5, 3, 0, 8,20.00,30.00,Wednesday
148,24.830949752875868
596,-35.784340854669057
597,100.0
2,1, 5, 3, 0, 8,30.00,40.00,Wednesday
148,24.881554272097838
596,-35.631764318077049
597,100.0
2,1, 5, 3, 0, 8,40.00,50.00,Wednesday
148,24.979790573969717
596,-35.36115121412098
597,100.0
2,1, 5, 3, 0, 8,50.00,60.00,Wednesday
148,25.11752627509262
596,-34.99800807648145
597,100.0
2,1, 5, 3, 0, 9, 0.00,10.00,Wednesday
148,25.224537074272008
596,-34.62017730176799
597,100.0
2,1, 5, 3, 0, 9,10.00,20.00,Wednesday
148,25.34351442041133
596,-34.35935916031841
597,100.0
2,1, 5, 3, 0, 9,20.00,30.00,Wednesday
148,25.44248427209301
596,-34.128001173761997
597,100.0
2,1, 5, 3, 0, 9,30.00,40.00,Wednesday
148,25.516433369438933
596,-33.91412925402026
597,100.0
2,1, 5, 3, 0, 9,40.00,50.00,Wednesday
148,25.591694400683875
596,-33.66248233331724
597,100.0
2,1, 5, 3, 0, 9,50.00,60.00,Wednesday
148,25.67299977938649
596,-33.41775416929908
597,100.0
2,1, 5, 3, 0,10, 0.00,10.00,Wednesday
148,27.719447071223429
596,0.30919411008599326
597,6.987026347645823
2,1, 5, 3, 0,10,10.00,20.00,Wednesday
148,28.09205240164087
596,0.4327543708827718
597,8.905867281276386
2,1, 5, 3, 0,10,20.00,30.00,Wednesday
148,28.372519791460968
596,0.5027536585941651
597,10.28319984016538
2,1, 5, 3, 0,10,30.00,40.00,Wednesday
148,28.870429398460105
596,0.6315439271667217
597,13.371051783309526
2,1, 5, 3, 0,10,40.00,50.00,Wednesday
148,29.065707605574759
596,0.6999386720875792
597,15.30328072972533
2,1, 5, 3, 0,10,50.00,60.00,Wednesday
148,29.07111116055202
596,0.7206273926611665
597,15.927599965550101
2,1, 5, 3, 0,11, 0.00,10.00,Wednesday
148,29.105890106247359
596,0.7420804002863319
597,16.594441777284247
2,1, 5, 3, 0,11,10.00,20.00,Wednesday
148,29.24652459715041
596,0.8023950781678538
597,18.5747415825891
2,1, 5, 3, 0,11,20.00,30.00,Wednesday
148,29.39038334723733
596,0.8615862606568729
597,20.667640244397647
2,1, 5, 3, 0,11,30.00,40.00,Wednesday
148,29.50894629640905
596,0.912996400825485
597,22.6031476848721
2,1, 5, 3, 0,11,40.00,50.00,Wednesday
148,29.61242916150746
596,0.9605596368765972
597,24.488799670164469
2,1, 5, 3, 0,11,50.00,60.00,Wednesday
148,29.694489308692057
596,0.9972310859304521
597,26.003207999927967
2,1, 5, 3, 0,12, 0.00,10.00,Wednesday
148,29.858183343999273
596,1.0621055277904217
597,28.806419681415279
2,1, 5, 3, 0,12,10.00,20.00,Wednesday
148,29.944802429531415
596,1.093899873288989
597,30.235678877625888
2,1, 5, 3, 0,12,20.00,30.00,Wednesday
148,30.150598805629188
596,1.1761090997209068
597,34.08826705342533
2,1, 5, 3, 0,12,30.00,40.00,Wednesday
148,30.25062740213466
596,1.217663226261387
597,36.115098580800808
2,1, 5, 3, 0,12,40.00,50.00,Wednesday
148,30.40919149718644
596,1.2815314551193143
597,39.32226640715631
2,1, 5, 3, 0,12,50.00,60.00,Wednesday
148,30.55330425316435
596,1.3382514072184513
597,42.251778081731519
2,1, 5, 3, 0,13, 0.00,10.00,Wednesday
148,30.715003563449998
596,1.4042649745622107
597,45.73925007286247
2,1, 5, 3, 0,13,10.00,20.00,Wednesday
148,30.849453090487676
596,1.4477593026731542
597,48.07234756698916
2,1, 5, 3, 0,13,20.00,30.00,Wednesday
148,30.959058772715069
596,1.4940380323700565
597,50.57637607584011
2,1, 5, 3, 0,13,30.00,40.00,Wednesday
148,31.060578860123458
596,1.539447082223401
597,53.046491665738319
2,1, 5, 3, 0,13,40.00,50.00,Wednesday
148,31.178111705616919
596,1.5826400962578058
597,55.400065149943518
2,1, 5, 3, 0,13,50.00,60.00,Wednesday
148,31.22580103196139
596,1.5993350131504403
597,56.30912126187356
2,1, 5, 3, 0,14, 0.00,10.00,Wednesday
148,31.217102975899477
596,1.625437836802424
597,57.728159066989459
2,1, 5, 3, 0,14,10.00,20.00,Wednesday
148,31.333140693421766
596,1.6922807993809964
597,61.33797981896031
2,1, 5, 3, 0,14,20.00,30.00,Wednesday
148,31.4921046368747
596,1.750752283642866
597,64.44899333195619
2,1, 5, 3, 0,14,30.00,40.00,Wednesday
148,31.60782850855916
596,1.7989133066296948
597,66.96400313871696
2,1, 5, 3, 0,14,40.00,50.00,Wednesday
148,31.721979739157747
596,1.8574563426226645
597,69.94688416954026
2,1, 5, 3, 0,14,50.00,60.00,Wednesday
148,31.927161932388459
596,1.935945671122337
597,73.78770583338107
2,1, 5, 3, 0,15, 0.00,10.00,Wednesday
148,31.865095213146874
596,0.9458753400307055
597,23.89705906768357
2,1, 5, 3, 0,15,10.00,20.00,Wednesday
148,31.932509966882308
596,1.0198670598459659
597,26.963611539104549
2,1, 5, 3, 0,15,20.00,30.00,Wednesday
148,32.10343605801883
596,1.1552622218924407
597,33.0908396534808
2,1, 5, 3, 0,15,30.00,40.00,Wednesday
148,32.22694157862897
596,1.245163371680491
597,37.48308992145327
2,1, 5, 3, 0,15,40.00,50.00,Wednesday
148,32.306733357683729
596,1.2903602920373727
597,39.77359333510502
2,1, 5, 3, 0,15,50.00,60.00,Wednesday
148,32.414005543046588
596,1.3686976497490334
597,43.851040640056599
2,1, 5, 3, 0,16, 0.00,10.00,Wednesday
148,32.52955746556107
596,1.4564223211345018
597,48.539640966983117
2,1, 5, 3, 0,16,10.00,20.00,Wednesday
148,32.62601980739549
596,1.5043550380027458
597,51.1367630112385
2,1, 5, 3, 0,16,20.00,30.00,Wednesday
148,32.66088791126003
596,1.528468544085396
597,52.44857152469651
2,1, 5, 3, 0,16,30.00,40.00,Wednesday
148,32.696352916500398
596,1.553385231453333
597,53.80593635635232
2,1, 5, 3, 0,16,40.00,50.00,Wednesday
148,32.74100361865825
596,1.5847562074851028
597,55.51533228920805
2,1, 5, 3, 0,16,50.00,60.00,Wednesday
148,32.64127382002914
596,1.5024341899794905
597,51.03238250383788
2,1, 5, 3, 0,17, 0.00,10.00,Wednesday
148,32.49484178579818
596,2.3690657794089686
597,90.27471547921972
2,1, 5, 3, 0,17,10.00,20.00,Wednesday
148,32.373579242425169
596,2.33481967462064
597,89.3069901510263
2,1, 5, 3, 0,17,20.00,30.00,Wednesday
148,32.26632930595619
596,2.302329996757314
597,88.33334902519425
2,1, 5, 3, 0,17,30.00,40.00,Wednesday
148,32.12190721086503
596,2.27857421755222
597,87.5871430564983
2,1, 5, 3, 0,17,40.00,50.00,Wednesday
148,32.0466670858722
596,2.2685853622589158
597,87.26473421659442
2,1, 5, 3, 0,17,50.00,60.00,Wednesday
148,32.12025567813346
596,2.2916188261917158
597,88.00048009409274
2,1, 5, 3, 0,18, 0.00,10.00,Wednesday
148,32.11890910101883
596,2.2950983862149645
597,88.10925966887669
2,1, 5, 3, 0,18,10.00,20.00,Wednesday
148,32.06863885308806
596,2.2843454989154425
597,87.7710910243642
2,1, 5, 3, 0,18,20.00,30.00,Wednesday
148,32.04428630976815
596,2.285309319862278
597,87.80164440741548
2,1, 5, 3, 0,18,30.00,40.00,Wednesday
148,32.053574892136399
596,2.2951838754223474
597,88.11192444786635
2,1, 5, 3, 0,18,40.00,50.00,Wednesday
148,32.09545650196675
596,2.31606832821803
597,88.75166788221584
2,1, 5, 3, 0,18,50.00,60.00,Wednesday
148,32.13067313555631
596,2.3328926667012608
597,89.25075331577935
2,1, 5, 3, 0,19, 0.00,10.00,Wednesday
148,30.688463140163706
596,-18.37359776025594
597,100.0
2,1, 5, 3, 0,19,10.00,20.00,Wednesday
148,30.21339255250115
596,-19.20381188866195
597,100.0
2,1, 5, 3, 0,19,20.00,30.00,Wednesday
148,29.945267912965659
596,-19.71740947784533
597,100.0
2,1, 5, 3, 0,19,30.00,40.00,Wednesday
148,29.42955201581392
596,-20.48246785581179
597,100.0
2,1, 5, 3, 0,19,40.00,50.00,Wednesday
148,29.1839088792797
596,-20.936232404333106
597,100.0
2,1, 5, 3, 0,19,50.00,60.00,Wednesday
148,29.129595678930817
596,-21.200203318832558
597,100.0
2,1, 5, 3, 0,20, 0.00,10.00,Wednesday
148,29.10629730683285
596,-21.346183241314674
597,100.0
2,1, 5, 3, 0,20,10.00,20.00,Wednesday
148,29.04558272424939
596,-21.545027956210374
597,100.0
2,1, 5, 3, 0,20,20.00,30.00,Wednesday
148,28.975751145007338
596,-21.758053571128604
597,100.0
2,1, 5, 3, 0,20,30.00,40.00,Wednesday
148,28.888596519736013
596,-21.973536979556735
597,100.0
2,1, 5, 3, 0,20,40.00,50.00,Wednesday
148,28.788791250486768
596,-22.270959872769497
597,100.0
2,1, 5, 3, 0,20,50.00,60.00,Wednesday
148,28.69911951782342
596,-22.569438133830056
597,100.0
2,1, 5, 3, 0,21, 0.00,10.00,Wednesday
148,28.646453753865495
596,-22.78103706928452
597,100.0
2,1, 5, 3, 0,21,10.00,20.00,Wednesday
148,28.587960101607054
596,-22.949442951773059
597,100.0
2,1, 5, 3, 0,21,20.00,30.00,Wednesday
148,28.50697638628826
596,-23.23261185535797
597,100.0
2,1, 5, 3, 0,21,30.00,40.00,Wednesday
148,28.43340574488656
596,-23.49808123335268
597,100.0
2,1, 5, 3, 0,21,40.00,50.00,Wednesday
148,28.386593501935626
596,-23.69378582665982
597,100.0
2,1, 5, 3, 0,21,50.00,60.00,Wednesday
148,28.30956639489052
596,-24.01879418510652
597,100.0
2,1, 5, 3, 0,22, 0.00,10.00,Wednesday
148,28.25382779801824
596,-24.247684631192894
597,100.0
2,1, 5, 3, 0,22,10.00,20.00,Wednesday
148,28.19772102669484
596,-24.522008829289978
597,100.0
2,1, 5, 3, 0,22,20.00,30.00,Wednesday
148,28.120385248734757
596,-24.823201779800806
597,100.0
2,1, 5, 3, 0,22,30.00,40.00,Wednesday
148,28.03035608164586
596,-25.084076203713616
597,100.0
2,1, 5, 3, 0,22,40.00,50.00,Wednesday
148,27.965229856615268
596,-25.30035025157266
597,100.0
2,1, 5, 3, 0,22,50.00,60.00,Wednesday
148,27.903357406251929
596,-25.557552781480234
597,100.0
2,1, 5, 3, 0,23, 0.00,10.00,Wednesday
148,27.879954240663275
596,-25.686214150714429
597,100.0
2,1, 5, 3, 0,23,10.00,20.00,Wednesday
148,27.848766021049579
596,-25.77006220644673
597,100.0
2,1, 5, 3, 0,23,20.00,30.00,Wednesday
148,27.799330050062957
596,-25.9712821699745
597,100.0
2,1, 5, 3, 0,23,30.00,40.00,Wednesday
148,27.745587181823085
596,-26.197458862291247
597,100.0
2,1, 5, 3, 0,23,40.00,50.00,Wednesday
148,27.67243845651192
596,-26.40601179790439
597,100.0
2,1, 5, 3, 0,23,50.00,60.00,Wednesday
148,27.64706732765874
596,-26.496843125997544
597,100.0
2,1, 5, 3, 0,24, 0.00,10.00,Wednesday
148,27.613402353360244
596,-26.623577305028339
597,100.0
2,1, 5, 3, 0,24,10.00,20.00,Wednesday
148,27.561260120436765
596,-26.799948092625063
597,100.0
2,1, 5, 3, 0,24,20.00,30.00,Wednesday
148,27.506724097242374
596,-26.979625855309047
597,100.0
2,1, 5, 3, 0,24,30.00,40.00,Wednesday
148,27.464156792185056
596,-27.128393734320349
597,100.0
2,1, 5, 3, 0,24,40.00,50.00,Wednesday
148,27.422684229680898
596,-27.2864585426971
597,100.0
2,1, 5, 3, 0,24,50.00,60.00,Wednesday
148,27.388252065402715
596,-27.425426760662643
597,100.0
2,2, 5, 4, 0, 1, 0.00,10.00,Thursday
148,27.364428623076124
596,-27.556496699344135
597,100.0
2,2, 5, 4, 0, 1,10.00,20.00,Thursday
148,27.287688707122116
596,-27.803956979879414
597,100.0
2,2, 5, 4, 0, 1,20.00,30.00,Thursday
148,27.20699040466744
596,-28.029159770692656
597,100.0
2,2, 5, 4, 0, 1,30.00,40.00,Thursday
148,27.12752581781675
596,-28.27486473125827
597,100.0
2,2, 5, 4, 0, 1,40.00,50.00,Thursday
148,27.075298012900697
596,-28.433146088826594
597,100.0
2,2, 5, 4, 0, 1,50.00,60.00,Thursday
148,27.041818884123889
596,-28.564216979759967
597,100.0
2,2, 5, 4, 0, 2, 0.00,10.00,Thursday
148,27.01130076067581
596,-28.68800034158211
597,100.0
2,2, 5, 4, 0, 2,10.00,20.00,Thursday
148,26.9733202677125
596,-28.82958680985542
597,100.0
2,2, 5, 4, 0, 2,20.00,30.00,Thursday
148,26.93878625502917
596,-28.94594708327202
597,100.0
2,2, 5, 4, 0, 2,30.00,40.00,Thursday
148,26.901541417955064
596,-29.085345749104918
597,100.0
2,2, 5, 4, 0, 2,40.00,50.00,Thursday
148,26.8641773050062
596,-29.21498665072597
597,100.0
2,2, 5, 4, 0, 2,50.00,60.00,Thursday
148,26.824376636744696
596,-29.359495728707779
597,100.0
2,2, 5, 4, 0, 3, 0.00,10.00,Thursday
148,26.77582374220874
596,-29.529874651360865
597,100.0
2,2, 5, 4, 0, 3,10.00,20.00,Thursday
148,26.70584074188743
596,-29.757868674919494
597,100.0
2,2, 5, 4, 0, 3,20.00,30.00,Thursday
148,26.662999866978546
596,-29.91928500235444
597,100.0
2,2, 5, 4, 0, 3,30.00,40.00,Thursday
148,26.588352978297505
596,-30.138923685580577
597,100.0
2,2, 5, 4, 0, 3,40.00,50.00,Thursday
148,26.507602493029116
596,-30.352278761192787
597,100.0
2,2, 5, 4, 0, 3,50.00,60.00,Thursday
148,26.46451435629954
596,-30.52795640799943
597,100.0
2,2, 5, 4, 0, 4, 0.00,10.00,Thursday
148,26.380566986309409
596,-30.7823176745585
597,100.0
2,2, 5, 4, 0, 4,10.00,20.00,Thursday
148,26.272481905204644
596,-31.071618196608033
597,100.0
2,2, 5, 4, 0, 4,20.00,30.00,Thursday
148,26.22576139207718
596,-31.24355493352219
597,100.0
2,2, 5, 4, 0, 4,30.00,40.00,Thursday
148,26.14988295352083
596,-31.46605534346839
597,100.0
2,2, 5, 4, 0, 4,40.00,50.00,Thursday
148,26.069123109692034
596,-31.675397433531793
597,100.0
2,2, 5, 4, 0, 4,50.00,60.00,Thursday
148,26.05654879801373
596,-31.74736061023848
597,100.0
2,2, 5, 4, 0, 5, 0.00,10.00,Thursday
148,25.97553553672352
596,-32.006556204390417
597,100.0
2,2, 5, 4, 0, 5,10.00,20.00,Thursday
148,25.88785822682195
596,-32.25429772519021
597,100.0
2,2, 5, 4, 0, 5,20.00,30.00,Thursday
148,25.840175516770857
596,-32.38401856654043
597,100.0
2,2, 5, 4, 0, 5,30.00,40.00,Thursday
148,25.819800513813197
596,-32.488297843272778
597,100.0
2,2, 5, 4, 0, 5,40.00,50.00,Thursday
148,25.786721655111216
596,-32.64963095362476
597,100.0
2,2, 5, 4, 0, 5,50.00,60.00,Thursday
148,25.721481880856186
596,-32.85541095508261
597,100.0
2,2, 5, 4, 0, 6, 0.00,10.00,Thursday
148,25.66666751920448
596,-33.000615035668769
597,100.0
2,2, 5, 4, 0, 6,10.00,20.00,Thursday
148,25.579054533357053
596,-33.30137890493942
597,100.0
2,2, 5, 4, 0, 6,20.00,30.00,Thursday
148,25.537749342900506
596,-33.451230755055707
597,100.0
2,2, 5, 4, 0, 6,30.00,40.00,Thursday
148,25.447151753688077
596,-33.745946529137629
597,100.0
2,2, 5, 4, 0, 6,40.00,50.00,Thursday
148,25.34310233923579
596,-34.01716790358111
597,100.0
2,2, 5, 4, 0, 6,50.00,60.00,Thursday
148,25.294917920442946
596,-34.134670295543298
597,100.0
2,2, 5, 4, 0, 7, 0.00,10.00,Thursday
148,25.312926400802114
596,-34.142558328758699
597,100.0
2,2, 5, 4, 0, 7,10.00,20.00,Thursday
148,25.325899590902084
596,-34.15882740938347
597,100.0
2,2, 5, 4, 0, 7,20.00,30.00,Thursday
148,25.291622679347868
596,-34.28504378985128
597,100.0
2,2, 5, 4, 0, 7,30.00,40.00,Thursday
148,25.271899152460816
596,-34.37337414061517
597,100.0
2,2, 5, 4, 0, 7,40.00,50.00,Thursday
148,25.258620082751034
596,-34.40438865306569
597,100.0
2,2, 5, 4, 0, 7,50.00,60.00,Thursday
148,25.25326409542294
596,-34.426856132661217
597,100.0
2,2, 5, 4, 0, 8, 0.00,10.00,Thursday
148,25.251800706846454
596,-34.44850868937034
597,100.0
2,2, 5, 4, 0, 8,10.00,20.00,Thursday
148,25.262047961678087
596,-34.428407707116878
597,100.0
2,2, 5, 4, 0, 8,20.00,30.00,Thursday
148,25.276626548986145
596,-34.391322041149049
597,100.0
2,2, 5, 4, 0, 8,30.00,40.00,Thursday
148,25.315666419436569
596,-34.260160895643149
597,100.0
2,2, 5, 4, 0, 8,40.00,50.00,Thursday
148,25.39489123573709
596,-34.029242639154848
597,100.0
2,2, 5, 4, 0, 8,50.00,60.00,Thursday
148,25.501902613614797
596,-33.76307463312888
597,100.0
2,2, 5, 4, 0, 9, 0.00,10.00,Thursday
148,25.551830698222717
596,-33.60586094956545
597,100.0
2,2, 5, 4, 0, 9,10.00,20.00,Thursday
148,25.604922816339987
596,-33.519174896803587
597,100.0
2,2, 5, 4, 0, 9,20.00,30.00,Thursday
148,25.700491862560204
596,-33.20160452066397
597,100.0
2,2, 5, 4, 0, 9,30.00,40.00,Thursday
148,25.814570458943704
596,-32.89280705814507
597,100.0
2,2, 5, 4, 0, 9,40.00,50.00,Thursday
148,25.922614508995375
596,-32.572841625686709
597,100.0
2,2, 5, 4, 0, 9,50.00,60.00,Thursday
148,25.983555160486764
596,-32.46307674949091
597,100.0
2,2, 5, 4, 0,10, 0.00,10.00,Thursday
148,27.937431397467408
596,0.38392347075950758
597,8.069710777985535
2,2, 5, 4, 0,10,10.00,20.00,Thursday
148,28.21567566043415
596,0.47991175324318849
597,9.810538412973145
2,2, 5, 4, 0,10,20.00,30.00,Thursday
148,28.491380756634919
596,0.5532549228861555
597,11.408299653312909
2,2, 5, 4, 0,10,30.00,40.00,Thursday
148,28.933422832976587
596,0.6637810841917584
597,14.256549050751432
2,2, 5, 4, 0,10,40.00,50.00,Thursday
148,29.1082727720833
596,0.728582154941847
597,16.17255676007136
2,2, 5, 4, 0,10,50.00,60.00,Thursday
148,29.160005369140568
596,0.767386010568976
597,17.4064090628586
2,2, 5, 4, 0,11, 0.00,10.00,Thursday
148,29.23462885474192
596,0.80786501600433
597,18.76198015442708
2,2, 5, 4, 0,11,10.00,20.00,Thursday
148,29.340097621384314
596,0.853269404041542
597,20.364735928972267
2,2, 5, 4, 0,11,20.00,30.00,Thursday
148,29.419353188268695
596,0.8868888876888947
597,21.60673487745403
2,2, 5, 4, 0,11,30.00,40.00,Thursday
148,29.55961261670623
596,0.943195354420725
597,23.78997956337237
2,2, 5, 4, 0,11,40.00,50.00,Thursday
148,29.689986420539755
596,0.9879045073156206
597,25.613142508871634
2,2, 5, 4, 0,11,50.00,60.00,Thursday
148,29.788651813440717
596,1.037182852869975
597,27.711195013360638
2,2, 5, 4, 0,12, 0.00,10.00,Thursday
148,29.96327461551217
596,1.1072032661361236
597,30.844081559987147
2,2, 5, 4, 0,12,10.00,20.00,Thursday
148,30.094921093648375
596,1.154013502930147
597,33.03152168899267
2,2, 5, 4, 0,12,20.00,30.00,Thursday
148,30.221636476217918
596,1.2082405512174948
597,35.65113985866168
2,2, 5, 4, 0,12,30.00,40.00,Thursday
148,30.41522817099721
596,1.274013812097242
597,38.93941825704791
2,2, 5, 4, 0,12,40.00,50.00,Thursday
148,30.472762609820557
596,1.3008276031436366
597,40.311000335146768
2,2, 5, 4, 0,12,50.00,60.00,Thursday
148,30.514919085567209
596,1.3189249299271174
597,41.24585637321572
2,2, 5, 4, 0,13, 0.00,10.00,Thursday
148,30.67609642298878
596,1.3866672242632
597,44.80253377585888
2,2, 5, 4, 0,13,10.00,20.00,Thursday
148,30.859059514215603
596,1.461926987984047
597,48.836951607020797
2,2, 5, 4, 0,13,20.00,30.00,Thursday
148,30.971424813512188
596,1.5033564135910318
597,51.082494412879018
2,2, 5, 4, 0,13,30.00,40.00,Thursday
148,31.093117746017066
596,1.5474450317751885
597,53.48224245520602
2,2, 5, 4, 0,13,40.00,50.00,Thursday
148,31.19197268321794
596,1.5862482007909223
597,55.59659668546135
2,2, 5, 4, 0,13,50.00,60.00,Thursday
148,31.33610085730406
596,1.642791874882477
597,58.66929025465658
2,2, 5, 4, 0,14, 0.00,10.00,Thursday
148,31.418416955420338
596,1.6898797699748963
597,61.20914346457545
2,2, 5, 4, 0,14,10.00,20.00,Thursday
148,31.476532671506079
596,1.7153256039564866
597,62.570514818010369
2,2, 5, 4, 0,14,20.00,30.00,Thursday
148,31.52854717079309
596,1.737233181468978
597,63.73470002236141
2,2, 5, 4, 0,14,30.00,40.00,Thursday
148,31.581286328448546
596,1.7589537456708793
597,64.88066396781109
2,2, 5, 4, 0,14,40.00,50.00,Thursday
148,31.61986472308093
596,1.7749474499305776
597,65.71862155894493
2,2, 5, 4, 0,14,50.00,60.00,Thursday
148,31.78187592612436
596,1.8510265578632844
597,69.62378413362748
2,2, 5, 4, 0,15, 0.00,10.00,Thursday
148,31.948928432046356
596,0.984247577353675
597,25.46110687875118
2,2, 5, 4, 0,15,10.00,20.00,Thursday
148,31.9851078322178
596,1.0058407570116268
597,26.366226178748989
2,2, 5, 4, 0,15,20.00,30.00,Thursday
148,32.012168581081187
596,1.0240940263939152
597,27.145081076228878
2,2, 5, 4, 0,15,30.00,40.00,Thursday
148,32.0505672718339
596,1.0462597880643397
597,28.1074772121285
2,2, 5, 4, 0,15,40.00,50.00,Thursday
148,32.086515200289827
596,1.0871491979129629
597,29.92926669401659
2,2, 5, 4, 0,15,50.00,60.00,Thursday
148,32.18102506317628
596,1.16794235344057
597,33.695934103249189
2,2, 5, 4, 0,16, 0.00,10.00,Thursday
148,32.31768310533079
596,1.272922831755656
597,38.88397109475169
2,2, 5, 4, 0,16,10.00,20.00,Thursday
148,32.45449788916854
596,1.3722685921319787
597,44.03969706111218
2,2, 5, 4, 0,16,20.00,30.00,Thursday
148,32.59124594446179
596,1.4484334845465128
597,48.108686242494119
2,2, 5, 4, 0,16,30.00,40.00,Thursday
148,32.63759811954711
596,1.488707957564646
597,50.287119688863899
2,2, 5, 4, 0,16,40.00,50.00,Thursday
148,32.643952865438
596,1.481019964354959
597,49.87024553866889
2,2, 5, 4, 0,16,50.00,60.00,Thursday
148,32.64400792795442
596,1.4815474716151896
597,49.898835436241
2,2, 5, 4, 0,17, 0.00,10.00,Thursday
148,32.665453558239878
596,2.3869212455483157
597,90.7555671670348
2,2, 5, 4, 0,17,10.00,20.00,Thursday
148,32.70386032243202
596,2.4056517599631226
597,91.24264555349285
2,2, 5, 4, 0,17,20.00,30.00,Thursday
148,32.6834246708965
596,2.3997729840016985
597,91.09167495458193
2,2, 5, 4, 0,17,30.00,40.00,Thursday
148,32.729109243113
596,2.4288641848911589
597,91.82183965680713
2,2, 5, 4, 0,17,40.00,50.00,Thursday
148,32.72662236286011
596,2.4261286059203366
597,91.75497897339796
2,2, 5, 4, 0,17,50.00,60.00,Thursday
148,32.71213351587524
596,2.41902380902798
597,91.5795896652716
2,2, 5, 4, 0,18, 0.00,10.00,Thursday
148,32.67988819306573
596,2.413174496842204
597,91.43330249087652
2,2, 5, 4, 0,18,10.00,20.00,Thursday
148,32.69869264212447
596,2.4250554128396537
597,91.72864728688299
2,2, 5, 4, 0,18,20.00,30.00,Thursday
148,32.74390382849939
596,2.445266441247951
597,92.2149549092943
2,2, 5, 4, 0,18,30.00,40.00,Thursday
148,32.82245477790205
596,2.474833435361086
597,92.89025855917645
2,2, 5, 4, 0,18,40.00,50.00,Thursday
148,32.87661362256528
596,2.4961821459355586
597,93.35160731428582
2,2, 5, 4, 0,18,50.00,60.00,Thursday
148,32.846077059839689
596,2.4889603607784509
597,93.19798051636555
2,2, 5, 4, 0,19, 0.00,10.00,Thursday
148,31.37208861888974
596,-16.77139352390452
597,100.0
2,2, 5, 4, 0,19,10.00,20.00,Thursday
148,30.87482245659458
596,-17.601345061121557
597,100.0
2,2, 5, 4, 0,19,20.00,30.00,Thursday
148,30.650101623317985
596,-17.898997452853494
597,100.0
2,2, 5, 4, 0,19,30.00,40.00,Thursday
148,30.15910026521852
596,-18.65001094565198
597,100.0
2,2, 5, 4, 0,19,40.00,50.00,Thursday
148,30.011861025449
596,-18.968975094416796
597,100.0
2,2, 5, 4, 0,19,50.00,60.00,Thursday
148,29.95919825539131
596,-19.22254998884762
597,100.0
2,2, 5, 4, 0,20, 0.00,10.00,Thursday
148,29.89411167873467
596,-19.430814405715624
597,100.0
2,2, 5, 4, 0,20,10.00,20.00,Thursday
148,29.811639556257924
596,-19.665693252117387
597,100.0
2,2, 5, 4, 0,20,20.00,30.00,Thursday
148,29.728656764395124
596,-19.903500740877285
597,100.0
2,2, 5, 4, 0,20,30.00,40.00,Thursday
148,29.655336785169536
596,-20.114881013995644
597,100.0
2,2, 5, 4, 0,20,40.00,50.00,Thursday
148,29.588864258270413
596,-20.313043440245168
597,100.0
2,2, 5, 4, 0,20,50.00,60.00,Thursday
148,29.536443092580265
596,-20.461329149267557
597,100.0
2,2, 5, 4, 0,21, 0.00,10.00,Thursday
148,29.487834047473304
596,-20.619542983745704
597,100.0
2,2, 5, 4, 0,21,10.00,20.00,Thursday
148,29.443158188057848
596,-20.75625619362559
597,100.0
2,2, 5, 4, 0,21,20.00,30.00,Thursday
148,29.392546020064598
596,-20.922257185670863
597,100.0
2,2, 5, 4, 0,21,30.00,40.00,Thursday
148,29.350390733934913
596,-21.040132589747448
597,100.0
2,2, 5, 4, 0,21,40.00,50.00,Thursday
148,29.311898416567304
596,-21.17284891115634
597,100.0
2,2, 5, 4, 0,21,50.00,60.00,Thursday
148,29.257168487973784
596,-21.36184078005851
597,100.0
2,2, 5, 4, 0,22, 0.00,10.00,Thursday
148,29.206924666195279
596,-21.533619592567299
597,100.0
2,2, 5, 4, 0,22,10.00,20.00,Thursday
148,29.148047518479517
596,-21.67987207577292
597,100.0
2,2, 5, 4, 0,22,20.00,30.00,Thursday
148,29.062083924882257
596,-21.938391511125638
597,100.0
2,2, 5, 4, 0,22,30.00,40.00,Thursday
148,29.01331078194845
596,-22.03158617637023
597,100.0
2,2, 5, 4, 0,22,40.00,50.00,Thursday
148,28.984098159145366
596,-22.158474972835014
597,100.0
2,2, 5, 4, 0,22,50.00,60.00,Thursday
148,28.944753871749748
596,-22.31250466104259
597,100.0
2,2, 5, 4, 0,23, 0.00,10.00,Thursday
148,28.89212676123015
596,-22.471102799940394
597,100.0
2,2, 5, 4, 0,23,10.00,20.00,Thursday
148,28.822251467176437
596,-22.703934022174967
597,100.0
2,2, 5, 4, 0,23,20.00,30.00,Thursday
148,28.7469281875919
596,-22.930506908333816
597,100.0
2,2, 5, 4, 0,23,30.00,40.00,Thursday
148,28.697624300261844
596,-23.120402193115276
597,100.0
2,2, 5, 4, 0,23,40.00,50.00,Thursday
148,28.620142173698608
596,-23.34084910991397
597,100.0
2,2, 5, 4, 0,23,50.00,60.00,Thursday
148,28.55491855567185
596,-23.493077013506765
597,100.0
2,2, 5, 4, 0,24, 0.00,10.00,Thursday
148,28.520493598088615
596,-23.59990022307018
597,100.0
2,2, 5, 4, 0,24,10.00,20.00,Thursday
148,28.490677913890406
596,-23.72920172540695
597,100.0
2,2, 5, 4, 0,24,20.00,30.00,Thursday
148,28.45142233985006
596,-23.877452063277475
597,100.0
2,2, 5, 4, 0,24,30.00,40.00,Thursday
148,28.40225051865811
596,-24.04477552708004
597,100.0
2,2, 5, 4, 0,24,40.00,50.00,Thursday
148,28.342796108827934
596,-24.273106494577303
597,100.0
2,2, 5, 4, 0,24,50.00,60.00,Thursday
148,28.266279959034475
596,-24.46964678336373
597,100.0
2,3, 5, 5, 0, 1, 0.00,10.00,Friday
148,28.179858061872598
596,-24.716919233493603
597,100.0
2,3, 5, 5, 0, 1,10.00,20.00,Friday
148,28.15821123890339
596,-24.801565037026916
597,100.0
2,3, 5, 5, 0, 1,20.00,30.00,Friday
148,28.09389528581155
596,-24.987143667075818
597,100.0
2,3, 5, 5, 0, 1,30.00,40.00,Friday
148,28.0457547933872
596,-25.128373945208176
597,100.0
2,3, 5, 5, 0, 1,40.00,50.00,Friday
148,28.009472377270229
596,-25.294044266635465
597,100.0
2,3, 5, 5, 0, 1,50.00,60.00,Friday
148,27.95955522170566
596,-25.436727346270936
597,100.0
2,3, 5, 5, 0, 2, 0.00,10.00,Friday
148,27.893603137975778
596,-25.640708043915443
597,100.0
2,3, 5, 5, 0, 2,10.00,20.00,Friday
148,27.81276387195509
596,-25.89736416662613
597,100.0
2,3, 5, 5, 0, 2,20.00,30.00,Friday
148,27.72389171250925
596,-26.1673987950202
597,100.0
2,3, 5, 5, 0, 2,30.00,40.00,Friday
148,27.630530285548539
596,-26.492768656679087
597,100.0
2,3, 5, 5, 0, 2,40.00,50.00,Friday