Program Version,EnergyPlus, Version 9.5.0-de239b2e5f, YMD=2021.12.08 19:26
1,5,Environment Title[],Latitude[deg],Longitude[deg],Time Zone[],Elevation[m]
2,8,Day of Simulation[],Month[],Day of Month[],DST Indicator[1=yes 0=no],Hour[],StartMinute[],EndMinute[],DayType
3,5,Cumulative Day of Simulation[],Month[],Day of Month[],DST Indicator[1=yes 0=no],DayType  ! When Daily Report Variables Requested
4,2,Cumulative Days of Simulation[],Month[]  ! When Monthly Report Variables Requested
5,1,Cumulative Days of Simulation[] ! When Run Period Report Variables Requested
6,1,Calendar Year of Simulation[] ! When Annual Report Variables Requested
148,1,THERMAL ZONE: JORGE,Zone Mean Air Temperature [C] !TimeStep
596,1,JORGE,Zone Thermal Comfort Fanger Model PMV [] !Hourly
597,1,JORGE,Zone Thermal Comfort Fanger Model PPD [%] !Hourly
End of Data Dictionary
1,RUN PERIOD 1,  18.85, -99.14,  -6.00,1280.00
2,1, 5, 3, 0, 1, 0.00,10.00,Wednesday
148,27.201346027572578
2,1, 5, 3, 0, 1,10.00,20.00,Wednesday
148,27.027072869074947
2,1, 5, 3, 0, 1,20.00,30.00,Wednesday
148,26.91952037125685
2,1, 5, 3, 0, 1,30.00,40.00,Wednesday
148,26.855879767633863
2,1, 5, 3, 0, 1,40.00,50.00,Wednesday
148,26.803419373776536
2,1, 5, 3, 0, 1,50.00,60.00,Wednesday
148,26.740100657784696
2,1, 5, 3, 0, 1, 0.00,60.00,Wednesday
596,-29.005487237614287
597,100.0
2,1, 5, 3, 0, 2, 0.00,10.00,Wednesday
148,26.67061325762842
2,1, 5, 3, 0, 2,10.00,20.00,Wednesday
148,26.62818319907861
2,1, 5, 3, 0, 2,20.00,30.00,Wednesday
148,26.532116585622398
2,1, 5, 3, 0, 2,30.00,40.00,Wednesday
148,26.49552919340348
2,1, 5, 3, 0, 2,40.00,50.00,Wednesday
148,26.454069238242785
2,1, 5, 3, 0, 2,50.00,60.00,Wednesday
148,26.41144113552516
2,1, 5, 3, 0, 2, 0.00,60.00,Wednesday
596,-30.233970712895844
597,100.0
2,1, 5, 3, 0, 3, 0.00,10.00,Wednesday
148,26.3658524787241
2,1, 5, 3, 0, 3,10.00,20.00,Wednesday
148,26.331500687209535
2,1, 5, 3, 0, 3,20.00,30.00,Wednesday
148,26.278562901200759
2,1, 5, 3, 0, 3,30.00,40.00,Wednesday
148,26.2088015288753
2,1, 5, 3, 0, 3,40.00,50.00,Wednesday
148,26.1527090824728
2,1, 5, 3, 0, 3,50.00,60.00,Wednesday
148,26.099162224651637
2,1, 5, 3, 0, 3, 0.00,60.00,Wednesday
596,-31.23829120596568
597,100.0
2,1, 5, 3, 0, 4, 0.00,10.00,Wednesday
148,26.046156325377788
2,1, 5, 3, 0, 4,10.00,20.00,Wednesday
148,25.999853412950107
2,1, 5, 3, 0, 4,20.00,30.00,Wednesday
148,25.966646818221635
2,1, 5, 3, 0, 4,30.00,40.00,Wednesday
148,25.873263297049684
2,1, 5, 3, 0, 4,40.00,50.00,Wednesday
148,25.765965790243905
2,1, 5, 3, 0, 4,50.00,60.00,Wednesday
148,25.686367161428597
2,1, 5, 3, 0, 4, 0.00,60.00,Wednesday
596,-32.38836107164072
597,100.0
2,1, 5, 3, 0, 5, 0.00,10.00,Wednesday
148,25.65189760719971
2,1, 5, 3, 0, 5,10.00,20.00,Wednesday
148,25.620649875503248
2,1, 5, 3, 0, 5,20.00,30.00,Wednesday
148,25.58388222542763
2,1, 5, 3, 0, 5,30.00,40.00,Wednesday
148,25.540217747559156
2,1, 5, 3, 0, 5,40.00,50.00,Wednesday
148,25.52680357432461
2,1, 5, 3, 0, 5,50.00,60.00,Wednesday
148,25.46303307538133
2,1, 5, 3, 0, 5, 0.00,60.00,Wednesday
596,-33.485620162371358
597,100.0
2,1, 5, 3, 0, 6, 0.00,10.00,Wednesday
148,25.400134788988305
2,1, 5, 3, 0, 6,10.00,20.00,Wednesday
148,25.27462051861205
2,1, 5, 3, 0, 6,20.00,30.00,Wednesday
148,25.18212026812151
2,1, 5, 3, 0, 6,30.00,40.00,Wednesday
148,25.080277921006706
2,1, 5, 3, 0, 6,40.00,50.00,Wednesday
148,24.997231330997587
2,1, 5, 3, 0, 6,50.00,60.00,Wednesday
148,24.931467950624748
2,1, 5, 3, 0, 6, 0.00,60.00,Wednesday
596,-34.81545168493936
597,100.0
2,1, 5, 3, 0, 7, 0.00,10.00,Wednesday
148,24.895232733767967
2,1, 5, 3, 0, 7,10.00,20.00,Wednesday
148,24.892066278412974
2,1, 5, 3, 0, 7,20.00,30.00,Wednesday
148,24.87285944316046
2,1, 5, 3, 0, 7,30.00,40.00,Wednesday
148,24.801062556657198
2,1, 5, 3, 0, 7,40.00,50.00,Wednesday
148,24.739729485026385
2,1, 5, 3, 0, 7,50.00,60.00,Wednesday
148,24.779406367165266
2,1, 5, 3, 0, 7, 0.00,60.00,Wednesday
596,-35.85563915341755
597,100.0
2,1, 5, 3, 0, 8, 0.00,10.00,Wednesday
148,24.81184936528752
2,1, 5, 3, 0, 8,10.00,20.00,Wednesday
148,24.79302359442044
2,1, 5, 3, 0, 8,20.00,30.00,Wednesday
148,24.829396542620637
2,1, 5, 3, 0, 8,30.00,40.00,Wednesday
148,24.880000502247748
2,1, 5, 3, 0, 8,40.00,50.00,Wednesday
148,24.97823236945112
2,1, 5, 3, 0, 8,50.00,60.00,Wednesday
148,25.11594761410147
2,1, 5, 3, 0, 8, 0.00,60.00,Wednesday
596,-35.715137918989658
597,100.0
2,1, 5, 3, 0, 9, 0.00,10.00,Wednesday
148,25.222999041911814
2,1, 5, 3, 0, 9,10.00,20.00,Wednesday
148,25.342063090246606
2,1, 5, 3, 0, 9,20.00,30.00,Wednesday
148,25.441053717010975
2,1, 5, 3, 0, 9,30.00,40.00,Wednesday
148,25.514955297941144
2,1, 5, 3, 0, 9,40.00,50.00,Wednesday
148,25.59015214238467
2,1, 5, 3, 0, 9,50.00,60.00,Wednesday
148,25.671389470108499
2,1, 5, 3, 0, 9, 0.00,60.00,Wednesday
596,-34.13986965047439
597,100.0
2,1, 5, 3, 0,10, 0.00,10.00,Wednesday
148,27.71867393537251
2,1, 5, 3, 0,10,10.00,20.00,Wednesday
148,28.09080190016832
2,1, 5, 3, 0,10,20.00,30.00,Wednesday
148,28.37120975446767
2,1, 5, 3, 0,10,30.00,40.00,Wednesday
148,28.869044465730175
2,1, 5, 3, 0,10,40.00,50.00,Wednesday
148,29.06430142932809
2,1, 5, 3, 0,10,50.00,60.00,Wednesday
148,29.069762079852933
2,1, 5, 3, 0,10, 0.00,60.00,Wednesday
596,0.5224305453235753
597,11.186155788694741
2,1, 5, 3, 0,11, 0.00,10.00,Wednesday
148,29.104356357115834
2,1, 5, 3, 0,11,10.00,20.00,Wednesday
148,29.24506408634676
2,1, 5, 3, 0,11,20.00,30.00,Wednesday
148,29.3890291986636
2,1, 5, 3, 0,11,30.00,40.00,Wednesday
148,29.507626791083113
2,1, 5, 3, 0,11,40.00,50.00,Wednesday
148,29.611101604822826
2,1, 5, 3, 0,11,50.00,60.00,Wednesday
148,29.693184942099657
2,1, 5, 3, 0,11, 0.00,60.00,Wednesday
596,0.8539337195497304
597,20.552303071517377
2,1, 5, 3, 0,12, 0.00,10.00,Wednesday
148,29.856783654667024
2,1, 5, 3, 0,12,10.00,20.00,Wednesday
148,29.943496143141326
2,1, 5, 3, 0,12,20.00,30.00,Wednesday
148,30.149291617089
2,1, 5, 3, 0,12,30.00,40.00,Wednesday
148,30.249316923840824
2,1, 5, 3, 0,12,40.00,50.00,Wednesday
148,30.40785642848579
2,1, 5, 3, 0,12,50.00,60.00,Wednesday
148,30.551946753988195
2,1, 5, 3, 0,12, 0.00,60.00,Wednesday
596,1.1706246417299682
597,33.968723764484007
2,1, 5, 3, 0,13, 0.00,10.00,Wednesday
148,30.713558921000876
2,1, 5, 3, 0,13,10.00,20.00,Wednesday
148,30.84804008419455
2,1, 5, 3, 0,13,20.00,30.00,Wednesday
148,30.957725859105847
2,1, 5, 3, 0,13,30.00,40.00,Wednesday
148,31.05923920494134
2,1, 5, 3, 0,13,40.00,50.00,Wednesday
148,31.17680539417455
2,1, 5, 3, 0,13,50.00,60.00,Wednesday
148,31.224476503704297
2,1, 5, 3, 0,13, 0.00,60.00,Wednesday
596,1.4880554227013765
597,50.26962385782769
2,1, 5, 3, 0,14, 0.00,10.00,Wednesday
148,31.21575837149645
2,1, 5, 3, 0,14,10.00,20.00,Wednesday
148,31.331801349130524
2,1, 5, 3, 0,14,20.00,30.00,Wednesday
148,31.490817328924025
2,1, 5, 3, 0,14,30.00,40.00,Wednesday
148,31.606596421147928
2,1, 5, 3, 0,14,40.00,50.00,Wednesday
148,31.720748902952957
2,1, 5, 3, 0,14,50.00,60.00,Wednesday
148,31.926103382788868
2,1, 5, 3, 0,14, 0.00,60.00,Wednesday
596,1.7548897194824778
597,64.56424797838658
2,1, 5, 3, 0,15, 0.00,10.00,Wednesday
148,31.788661232831097
2,1, 5, 3, 0,15,10.00,20.00,Wednesday
148,31.808295040381127
2,1, 5, 3, 0,15,20.00,30.00,Wednesday
148,31.969618782159068
2,1, 5, 3, 0,15,30.00,40.00,Wednesday
148,32.098479569141037
2,1, 5, 3, 0,15,40.00,50.00,Wednesday
148,32.183538225938
2,1, 5, 3, 0,15,50.00,60.00,Wednesday
148,32.29147614513901
2,1, 5, 3, 0,15, 0.00,60.00,Wednesday
596,-20.561286195306367
597,100.0
2,1, 5, 3, 0,16, 0.00,10.00,Wednesday
148,32.408289596030758
2,1, 5, 3, 0,16,10.00,20.00,Wednesday
148,32.50899542344295
2,1, 5, 3, 0,16,20.00,30.00,Wednesday
148,32.545885550217338
2,1, 5, 3, 0,16,30.00,40.00,Wednesday
148,32.64640205671321
2,1, 5, 3, 0,16,40.00,50.00,Wednesday
148,32.731060621634018
2,1, 5, 3, 0,16,50.00,60.00,Wednesday
148,32.62785062211206
2,1, 5, 3, 0,16, 0.00,60.00,Wednesday
596,-8.73654101848782
597,73.5994810802738
2,1, 5, 3, 0,17, 0.00,10.00,Wednesday
148,32.47760333751868
2,1, 5, 3, 0,17,10.00,20.00,Wednesday
148,32.36099152682098
2,1, 5, 3, 0,17,20.00,30.00,Wednesday
148,32.255536386369119
2,1, 5, 3, 0,17,30.00,40.00,Wednesday
148,32.1129790844209
2,1, 5, 3, 0,17,40.00,50.00,Wednesday
148,32.03853143014427
2,1, 5, 3, 0,17,50.00,60.00,Wednesday
148,32.111920090267918
2,1, 5, 3, 0,17, 0.00,60.00,Wednesday
596,2.2067765871802398
597,85.13085532746438
2,1, 5, 3, 0,18, 0.00,10.00,Wednesday
148,32.111163566260277
2,1, 5, 3, 0,18,10.00,20.00,Wednesday
148,32.0612106220285
2,1, 5, 3, 0,18,20.00,30.00,Wednesday
148,32.037373244385509
2,1, 5, 3, 0,18,30.00,40.00,Wednesday
148,32.04702054000456
2,1, 5, 3, 0,18,40.00,50.00,Wednesday
148,32.088863248681658
2,1, 5, 3, 0,18,50.00,60.00,Wednesday
148,32.12414101549025
2,1, 5, 3, 0,18, 0.00,60.00,Wednesday
596,2.2090751162457935
597,85.2290455338791
2,1, 5, 3, 0,19, 0.00,10.00,Wednesday
148,30.681043960048585
2,1, 5, 3, 0,19,10.00,20.00,Wednesday
148,30.206341165407588
2,1, 5, 3, 0,19,20.00,30.00,Wednesday
148,29.938466376029746
2,1, 5, 3, 0,19,30.00,40.00,Wednesday
148,29.423068170741077
2,1, 5, 3, 0,19,40.00,50.00,Wednesday
148,29.17823724183666
2,1, 5, 3, 0,19,50.00,60.00,Wednesday
148,29.124004316883629
2,1, 5, 3, 0,19, 0.00,60.00,Wednesday
596,-20.363920315009819
597,100.0
2,1, 5, 3, 0,20, 0.00,10.00,Wednesday
148,29.10058525238722
2,1, 5, 3, 0,20,10.00,20.00,Wednesday
148,29.0399938637782
2,1, 5, 3, 0,20,20.00,30.00,Wednesday
148,28.970278065965535
2,1, 5, 3, 0,20,30.00,40.00,Wednesday
148,28.88320633252165
2,1, 5, 3, 0,20,40.00,50.00,Wednesday
148,28.783471893827273
2,1, 5, 3, 0,20,50.00,60.00,Wednesday
148,28.69389158670841
2,1, 5, 3, 0,20, 0.00,60.00,Wednesday
596,-22.263164470651235
597,100.0
2,1, 5, 3, 0,21, 0.00,10.00,Wednesday
148,28.641320777845878
2,1, 5, 3, 0,21,10.00,20.00,Wednesday
148,28.582918311503709
2,1, 5, 3, 0,21,20.00,30.00,Wednesday
148,28.501983039108898
2,1, 5, 3, 0,21,30.00,40.00,Wednesday
148,28.428462477773338
2,1, 5, 3, 0,21,40.00,50.00,Wednesday
148,28.381757032756569
2,1, 5, 3, 0,21,50.00,60.00,Wednesday
148,28.3048423097969
2,1, 5, 3, 0,21, 0.00,60.00,Wednesday
596,-23.677411729410989
597,100.0
2,1, 5, 3, 0,22, 0.00,10.00,Wednesday
148,28.249235163952059
2,1, 5, 3, 0,22,10.00,20.00,Wednesday
148,28.193217445869217
2,1, 5, 3, 0,22,20.00,30.00,Wednesday
148,28.11596140957023
2,1, 5, 3, 0,22,30.00,40.00,Wednesday
148,28.026041301483799
2,1, 5, 3, 0,22,40.00,50.00,Wednesday
148,27.96103733581888
2,1, 5, 3, 0,22,50.00,60.00,Wednesday
148,27.899284122993835
2,1, 5, 3, 0,22, 0.00,60.00,Wednesday
596,-25.177249976153467
597,100.0
2,1, 5, 3, 0,23, 0.00,10.00,Wednesday
148,27.875896755294585
2,1, 5, 3, 0,23,10.00,20.00,Wednesday
148,27.84477493966802
2,1, 5, 3, 0,23,20.00,30.00,Wednesday
148,27.795446800427745
2,1, 5, 3, 0,23,30.00,40.00,Wednesday
148,27.74172535704729
2,1, 5, 3, 0,23,40.00,50.00,Wednesday
148,27.668711937397004
2,1, 5, 3, 0,23,50.00,60.00,Wednesday
148,27.64345480281172
2,1, 5, 3, 0,23, 0.00,60.00,Wednesday
596,-26.317302942855876
597,100.0
2,1, 5, 3, 0,24, 0.00,10.00,Wednesday
148,27.610127317504217
2,1, 5, 3, 0,24,10.00,20.00,Wednesday
148,27.55819850714774
2,1, 5, 3, 0,24,20.00,30.00,Wednesday
148,27.503498890160406
2,1, 5, 3, 0,24,30.00,40.00,Wednesday
148,27.46070976091288
2,1, 5, 3, 0,24,40.00,50.00,Wednesday
148,27.418846793388867
2,1, 5, 3, 0,24,50.00,60.00,Wednesday
148,27.384156147130005
2,1, 5, 3, 0,24, 0.00,60.00,Wednesday
596,-27.252443122168875
597,100.0
2,2, 5, 4, 0, 1, 0.00,10.00,Thursday
148,27.360737245408907
2,2, 5, 4, 0, 1,10.00,20.00,Thursday
148,27.284558963376417
2,2, 5, 4, 0, 1,20.00,30.00,Thursday
148,27.20403420277839
2,2, 5, 4, 0, 1,30.00,40.00,Thursday
148,27.124539220083347
2,2, 5, 4, 0, 1,40.00,50.00,Thursday
148,27.072237318302326
2,2, 5, 4, 0, 1,50.00,60.00,Thursday
148,27.038693955307449
2,2, 5, 4, 0, 1, 0.00,60.00,Thursday
596,-28.306640685702264
597,100.0
2,2, 5, 4, 0, 2, 0.00,10.00,Thursday
148,27.008446380495234
2,2, 5, 4, 0, 2,10.00,20.00,Thursday
148,26.9706771951768
2,2, 5, 4, 0, 2,20.00,30.00,Thursday
148,26.93635177375175
2,2, 5, 4, 0, 2,30.00,40.00,Thursday
148,26.898986213553223
2,2, 5, 4, 0, 2,40.00,50.00,Thursday
148,26.8614571254554
2,2, 5, 4, 0, 2,50.00,60.00,Thursday
148,26.82158454733154
2,2, 5, 4, 0, 2, 0.00,60.00,Thursday
596,-29.203363456810576
597,100.0
2,2, 5, 4, 0, 3, 0.00,10.00,Thursday
148,26.773325912135804
2,2, 5, 4, 0, 3,10.00,20.00,Thursday
148,26.703405964840714
2,2, 5, 4, 0, 3,20.00,30.00,Thursday
148,26.660788813614685
2,2, 5, 4, 0, 3,30.00,40.00,Thursday
148,26.5860689270769
2,2, 5, 4, 0, 3,40.00,50.00,Thursday
148,26.505291593212428
2,2, 5, 4, 0, 3,50.00,60.00,Thursday
148,26.462491792356866
2,2, 5, 4, 0, 3, 0.00,60.00,Thursday
596,-30.210606999529614
597,100.0
2,2, 5, 4, 0, 4, 0.00,10.00,Thursday
148,26.378870217475467
2,2, 5, 4, 0, 4,10.00,20.00,Thursday
148,26.27102265192979
2,2, 5, 4, 0, 4,20.00,30.00,Thursday
148,26.224295926202779
2,2, 5, 4, 0, 4,30.00,40.00,Thursday
148,26.14843609838892
2,2, 5, 4, 0, 4,40.00,50.00,Thursday
148,26.06771896791861
2,2, 5, 4, 0, 4,50.00,60.00,Thursday
148,26.054816905676199
2,2, 5, 4, 0, 4, 0.00,60.00,Thursday
596,-31.495732607165285
597,100.0
2,2, 5, 4, 0, 5, 0.00,10.00,Thursday
148,25.973852155069289
2,2, 5, 4, 0, 5,10.00,20.00,Thursday
148,25.88645083421975
2,2, 5, 4, 0, 5,20.00,30.00,Thursday
148,25.83849518194121
2,2, 5, 4, 0, 5,30.00,40.00,Thursday
148,25.817964064163708
2,2, 5, 4, 0, 5,40.00,50.00,Thursday
148,25.784830709544648
2,2, 5, 4, 0, 5,50.00,60.00,Thursday
148,25.719569560164798
2,2, 5, 4, 0, 5, 0.00,60.00,Thursday
596,-32.5965604086649
597,100.0
2,2, 5, 4, 0, 6, 0.00,10.00,Thursday
148,25.66508206872231
2,2, 5, 4, 0, 6,10.00,20.00,Thursday
148,25.57746215814782
2,2, 5, 4, 0, 6,20.00,30.00,Thursday
148,25.53595251138578
2,2, 5, 4, 0, 6,30.00,40.00,Thursday
148,25.445365742781975
2,2, 5, 4, 0, 6,40.00,50.00,Thursday
148,25.341334959765619
2,2, 5, 4, 0, 6,50.00,60.00,Thursday
148,25.293139764527206
2,2, 5, 4, 0, 6, 0.00,60.00,Thursday
596,-33.75783283910658
597,100.0
2,2, 5, 4, 0, 7, 0.00,10.00,Thursday
148,25.311164338496398
2,2, 5, 4, 0, 7,10.00,20.00,Thursday
148,25.324489413463274
2,2, 5, 4, 0, 7,20.00,30.00,Thursday
148,25.290033262146303
2,2, 5, 4, 0, 7,30.00,40.00,Thursday
148,25.27078372864982
2,2, 5, 4, 0, 7,40.00,50.00,Thursday
148,25.257745448123054
2,2, 5, 4, 0, 7,50.00,60.00,Thursday
148,25.252375292611366
2,2, 5, 4, 0, 7, 0.00,60.00,Thursday
596,-34.44028119827422
597,100.0
2,2, 5, 4, 0, 8, 0.00,10.00,Thursday
148,25.250851056473026
2,2, 5, 4, 0, 8,10.00,20.00,Thursday
148,25.26088812672935
2,2, 5, 4, 0, 8,20.00,30.00,Thursday
148,25.275279701534218
2,2, 5, 4, 0, 8,30.00,40.00,Thursday
148,25.31425105491439
2,2, 5, 4, 0, 8,40.00,50.00,Thursday
148,25.39340079742159
2,2, 5, 4, 0, 8,50.00,60.00,Thursday
148,25.50041528535826
2,2, 5, 4, 0, 8, 0.00,60.00,Thursday
596,-34.35525105040791
597,100.0
2,2, 5, 4, 0, 9, 0.00,10.00,Thursday
148,25.550287265325396
2,2, 5, 4, 0, 9,10.00,20.00,Thursday
148,25.60333212467661
2,2, 5, 4, 0, 9,20.00,30.00,Thursday
148,25.69894543462331
2,2, 5, 4, 0, 9,30.00,40.00,Thursday
148,25.813035639575096
2,2, 5, 4, 0, 9,40.00,50.00,Thursday
148,25.921038497522117
2,2, 5, 4, 0, 9,50.00,60.00,Thursday
148,25.98196165705648
2,2, 5, 4, 0, 9, 0.00,60.00,Thursday
596,-33.1732423973837
597,100.0
2,2, 5, 4, 0,10, 0.00,10.00,Thursday
148,27.9393476181783
2,2, 5, 4, 0,10,10.00,20.00,Thursday
148,28.214931800869164
2,2, 5, 4, 0,10,20.00,30.00,Thursday
148,28.490470347606256
2,2, 5, 4, 0,10,30.00,40.00,Thursday
148,28.932207904179387
2,2, 5, 4, 0,10,40.00,50.00,Thursday
148,29.1069196350762
2,2, 5, 4, 0,10,50.00,60.00,Thursday
148,29.1587032998502
2,2, 5, 4, 0,10, 0.00,60.00,Thursday
596,0.5675999358354466
597,12.152806276496186
2,2, 5, 4, 0,11, 0.00,10.00,Thursday
148,29.23336530287448
2,2, 5, 4, 0,11,10.00,20.00,Thursday
148,29.338821217851547
2,2, 5, 4, 0,11,20.00,30.00,Thursday
148,29.418059877354908
2,2, 5, 4, 0,11,30.00,40.00,Thursday
148,29.55833054824778
2,2, 5, 4, 0,11,40.00,50.00,Thursday
148,29.68877139591831
2,2, 5, 4, 0,11,50.00,60.00,Thursday
148,29.787370429416144
2,2, 5, 4, 0,11, 0.00,60.00,Thursday
596,0.8924009086844
597,21.941310457031649
2,2, 5, 4, 0,12, 0.00,10.00,Thursday
148,29.961984501764304
2,2, 5, 4, 0,12,10.00,20.00,Thursday
148,30.09357794993645
2,2, 5, 4, 0,12,20.00,30.00,Thursday
148,30.220247070848367
2,2, 5, 4, 0,12,30.00,40.00,Thursday
148,30.41380729084403
2,2, 5, 4, 0,12,40.00,50.00,Thursday
148,30.471371453812315
2,2, 5, 4, 0,12,50.00,60.00,Thursday
148,30.51356407441184
2,2, 5, 4, 0,12, 0.00,60.00,Thursday
596,1.2012997257480096
597,35.39939081503106
2,2, 5, 4, 0,13, 0.00,10.00,Thursday
148,30.674749336143493
2,2, 5, 4, 0,13,10.00,20.00,Thursday
148,30.857703245039475
2,2, 5, 4, 0,13,20.00,30.00,Thursday
148,30.97006894463123
2,2, 5, 4, 0,13,30.00,40.00,Thursday
148,31.09175674071438
2,2, 5, 4, 0,13,40.00,50.00,Thursday
148,31.190649580460119
2,2, 5, 4, 0,13,50.00,60.00,Thursday
148,31.33480886670789
2,2, 5, 4, 0,13, 0.00,60.00,Thursday
596,1.4964109897630918
597,50.72761016793107
2,2, 5, 4, 0,14, 0.00,10.00,Thursday
148,31.41709755613308
2,2, 5, 4, 0,14,10.00,20.00,Thursday
148,31.47524338351083
2,2, 5, 4, 0,14,20.00,30.00,Thursday
148,31.527294793726019
2,2, 5, 4, 0,14,30.00,40.00,Thursday
148,31.580022585981675
2,2, 5, 4, 0,14,40.00,50.00,Thursday
148,31.61864413202429
2,2, 5, 4, 0,14,50.00,60.00,Thursday
148,31.780616315530897
2,2, 5, 4, 0,14, 0.00,60.00,Thursday
596,1.7305385641336509
597,63.35591892077593
2,2, 5, 4, 0,15, 0.00,10.00,Thursday
148,31.875187822442589
2,2, 5, 4, 0,15,10.00,20.00,Thursday
148,31.88804759985259
2,2, 5, 4, 0,15,20.00,30.00,Thursday
148,31.909673002577713
2,2, 5, 4, 0,15,30.00,40.00,Thursday
148,31.932190837734589
2,2, 5, 4, 0,15,40.00,50.00,Thursday
148,31.96449888285854
2,2, 5, 4, 0,15,50.00,60.00,Thursday
148,32.05926689502445
2,2, 5, 4, 0,15, 0.00,60.00,Thursday
596,-21.149127315244518
597,100.0
2,2, 5, 4, 0,16, 0.00,10.00,Thursday
148,32.195230197561347
2,2, 5, 4, 0,16,10.00,20.00,Thursday
148,32.333039459729189
2,2, 5, 4, 0,16,20.00,30.00,Thursday
148,32.47418320906315
2,2, 5, 4, 0,16,30.00,40.00,Thursday
148,32.587028244497307
2,2, 5, 4, 0,16,40.00,50.00,Thursday
148,32.60892716704164
2,2, 5, 4, 0,16,50.00,60.00,Thursday
148,32.61698616654864
2,2, 5, 4, 0,16, 0.00,60.00,Thursday
596,-9.148749173854848
597,71.5049574548015
2,2, 5, 4, 0,17, 0.00,10.00,Thursday
148,32.64701039261239
2,2, 5, 4, 0,17,10.00,20.00,Thursday
148,32.691255843410058
2,2, 5, 4, 0,17,20.00,30.00,Thursday
148,32.670974905774489
2,2, 5, 4, 0,17,30.00,40.00,Thursday
148,32.719024196165047
2,2, 5, 4, 0,17,40.00,50.00,Thursday
148,32.71657903462669
2,2, 5, 4, 0,17,50.00,60.00,Thursday
148,32.70272104987006
2,2, 5, 4, 0,17, 0.00,60.00,Thursday
596,2.29902779213211
597,88.22373309474159
2,2, 5, 4, 0,18, 0.00,10.00,Thursday
148,32.6707726709346
2,2, 5, 4, 0,18,10.00,20.00,Thursday
148,32.689856894687618
2,2, 5, 4, 0,18,20.00,30.00,Thursday
148,32.73540218863225
2,2, 5, 4, 0,18,30.00,40.00,Thursday
148,32.81436280969305
2,2, 5, 4, 0,18,40.00,50.00,Thursday
148,32.86875159366046
2,2, 5, 4, 0,18,50.00,60.00,Thursday
148,32.83841551579723
2,2, 5, 4, 0,18, 0.00,60.00,Thursday
596,2.3532140002211467
597,89.80409163887193
2,2, 5, 4, 0,19, 0.00,10.00,Thursday
148,31.363664578804618
2,2, 5, 4, 0,19,10.00,20.00,Thursday
148,30.867342030327163
2,2, 5, 4, 0,19,20.00,30.00,Thursday
148,30.642585049896068
2,2, 5, 4, 0,19,30.00,40.00,Thursday
148,30.151516042136885
2,2, 5, 4, 0,19,40.00,50.00,Thursday
148,30.004609328782516
2,2, 5, 4, 0,19,50.00,60.00,Thursday
148,29.952289070270625
2,2, 5, 4, 0,19, 0.00,60.00,Thursday
596,-18.606286512607939
597,100.0
2,2, 5, 4, 0,20, 0.00,10.00,Thursday
148,29.887429704752369
2,2, 5, 4, 0,20,10.00,20.00,Thursday
148,29.805064522164306
2,2, 5, 4, 0,20,20.00,30.00,Thursday
148,29.7221544059942
2,2, 5, 4, 0,20,30.00,40.00,Thursday
148,29.649123069342108
2,2, 5, 4, 0,20,40.00,50.00,Thursday
148,29.582992426964525
2,2, 5, 4, 0,20,50.00,60.00,Thursday
148,29.53081293419451
2,2, 5, 4, 0,20, 0.00,60.00,Thursday
596,-20.373768999619725
597,100.0
2,2, 5, 4, 0,21, 0.00,10.00,Thursday
148,29.482409922420353
2,2, 5, 4, 0,21,10.00,20.00,Thursday
148,29.437917408735506
2,2, 5, 4, 0,21,20.00,30.00,Thursday
148,29.38737775779636
2,2, 5, 4, 0,21,30.00,40.00,Thursday
148,29.3453624342483
2,2, 5, 4, 0,21,40.00,50.00,Thursday
148,29.30704287547601
2,2, 5, 4, 0,21,50.00,60.00,Thursday
148,29.252507708540337
2,2, 5, 4, 0,21, 0.00,60.00,Thursday
596,-21.341322948211287
597,100.0
2,2, 5, 4, 0,22, 0.00,10.00,Thursday
148,29.20239601003454
2,2, 5, 4, 0,22,10.00,20.00,Thursday
148,29.143730818898008
2,2, 5, 4, 0,22,20.00,30.00,Thursday
148,29.05808079272803
2,2, 5, 4, 0,22,30.00,40.00,Thursday
148,29.009439665867416
2,2, 5, 4, 0,22,40.00,50.00,Thursday
148,28.980063872754923
2,2, 5, 4, 0,22,50.00,60.00,Thursday
148,28.94075891563831
2,2, 5, 4, 0,22, 0.00,60.00,Thursday
596,-22.276931478387639
597,100.0
2,2, 5, 4, 0,23, 0.00,10.00,Thursday
148,28.88831498185323
2,2, 5, 4, 0,23,10.00,20.00,Thursday
148,28.81860146013236
2,2, 5, 4, 0,23,20.00,30.00,Thursday
148,28.743444029001365
2,2, 5, 4, 0,23,30.00,40.00,Thursday
148,28.694258757272047
2,2, 5, 4, 0,23,40.00,50.00,Thursday
148,28.616880505733925
2,2, 5, 4, 0,23,50.00,60.00,Thursday
148,28.551686101806728
2,2, 5, 4, 0,23, 0.00,60.00,Thursday
596,-23.319540960161264
597,100.0
2,2, 5, 4, 0,24, 0.00,10.00,Thursday
148,28.51722606158007
2,2, 5, 4, 0,24,10.00,20.00,Thursday
148,28.487536699470227
2,2, 5, 4, 0,24,20.00,30.00,Thursday
148,28.448369139288844
2,2, 5, 4, 0,24,30.00,40.00,Thursday
148,28.399241532506353
2,2, 5, 4, 0,24,40.00,50.00,Thursday
148,28.339919770538807
2,2, 5, 4, 0,24,50.00,60.00,Thursday
148,28.26329343101452
2,2, 5, 4, 0,24, 0.00,60.00,Thursday
596,-24.288719610835004
597,100.0
2,3, 5, 5, 0, 1, 0.00,10.00,Friday
148,28.176986761549256
2,3, 5, 5, 0, 1,10.00,20.00,Friday
148,28.155188012442843
2,3, 5, 5, 0, 1,20.00,30.00,Friday
148,28.091054783396694
2,3, 5, 5, 0, 1,30.00,40.00,Friday
148,28.04324003521312
2,3, 5, 5, 0, 1,40.00,50.00,Friday
148,28.00675477412735
2,3, 5, 5, 0, 1,50.00,60.00,Friday
148,27.95685640287666
2,3, 5, 5, 0, 1, 0.00,60.00,Friday
596,-25.335708772363267
597,100.0
2,3, 5, 5, 0, 2, 0.00,10.00,Friday
148,27.89107722799158
2,3, 5, 5, 0, 2,10.00,20.00,Friday
148,27.810441229030788
2,3, 5, 5, 0, 2,20.00,30.00,Friday
148,27.721814043217746
2,3, 5, 5, 0, 2,30.00,40.00,Friday
148,27.62812956161256
2,3, 5, 5, 0, 2,40.00,50.00,Friday
148,27.49999960214214
2,3, 5, 5, 0, 2,50.00,60.00,Friday
148,27.424329182678514
2,3, 5, 5, 0, 2, 0.00,60.00,Friday
596,-26.6156251415744
597,100.0
2,3, 5, 5, 0, 3, 0.00,10.00,Friday
148,27.36065458176328
2,3, 5, 5, 0, 3,10.00,20.00,Friday
148,27.28199413353784
2,3, 5, 5, 0, 3,20.00,30.00,Friday
148,27.19417563094901
2,3, 5, 5, 0, 3,30.00,40.00,Friday
148,27.122255459561843
2,3, 5, 5, 0, 3,40.00,50.00,Friday
148,27.062043216644676
2,3, 5, 5, 0, 3,50.00,60.00,Friday
148,26.964221798212969
2,3, 5, 5, 0, 3, 0.00,60.00,Friday
596,-28.129853062754007
597,100.0
2,3, 5, 5, 0, 4, 0.00,10.00,Friday
148,26.91524978558005
2,3, 5, 5, 0, 4,10.00,20.00,Friday
148,26.85542591740083
2,3, 5, 5, 0, 4,20.00,30.00,Friday
148,26.799256723384315
2,3, 5, 5, 0, 4,30.00,40.00,Friday
148,26.746829778907178
2,3, 5, 5, 0, 4,40.00,50.00,Friday
148,26.694555171883218
2,3, 5, 5, 0, 4,50.00,60.00,Friday
148,26.655967171308224
2,3, 5, 5, 0, 4, 0.00,60.00,Friday
596,-29.36197238646692
597,100.0
2,3, 5, 5, 0, 5, 0.00,10.00,Friday
148,26.640093508157326
2,3, 5, 5, 0, 5,10.00,20.00,Friday
148,26.634858509268555
2,3, 5, 5, 0, 5,20.00,30.00,Friday
148,26.565077380461248
2,3, 5, 5, 0, 5,30.00,40.00,Friday
148,26.481286227398515
2,3, 5, 5, 0, 5,40.00,50.00,Friday
148,26.423825731286568
2,3, 5, 5, 0, 5,50.00,60.00,Friday
148,26.376904038895405
2,3, 5, 5, 0, 5, 0.00,60.00,Friday
596,-30.27819210730002
597,100.0
2,3, 5, 5, 0, 6, 0.00,10.00,Friday
148,26.31202109115221
2,3, 5, 5, 0, 6,10.00,20.00,Friday
148,26.280787126320278
2,3, 5, 5, 0, 6,20.00,30.00,Friday
148,26.24852379010419
2,3, 5, 5, 0, 6,30.00,40.00,Friday
148,26.193964235033005
2,3, 5, 5, 0, 6,40.00,50.00,Friday
148,26.12387451300822
2,3, 5, 5, 0, 6,50.00,60.00,Friday
148,26.04941126521087
2,3, 5, 5, 0, 6, 0.00,60.00,Friday
596,-31.3832950667328
597,100.0
2,3, 5, 5, 0, 7, 0.00,10.00,Friday
148,25.977595312311906
2,3, 5, 5, 0, 7,10.00,20.00,Friday
148,25.90776207600229
2,3, 5, 5, 0, 7,20.00,30.00,Friday
148,25.840096916279135
2,3, 5, 5, 0, 7,30.00,40.00,Friday
148,25.80849527469222
2,3, 5, 5, 0, 7,40.00,50.00,Friday
148,25.801421493161916
2,3, 5, 5, 0, 7,50.00,60.00,Friday
148,25.805723895561746
2,3, 5, 5, 0, 7, 0.00,60.00,Friday
596,-32.48787698501123
597,100.0
2,3, 5, 5, 0, 8, 0.00,10.00,Friday
148,25.764806874576789
2,3, 5, 5, 0, 8,10.00,20.00,Friday
148,25.726647225418078
2,3, 5, 5, 0, 8,20.00,30.00,Friday
148,25.746676467652116
2,3, 5, 5, 0, 8,30.00,40.00,Friday
148,25.826460042131648
2,3, 5, 5, 0, 8,40.00,50.00,Friday
148,25.96326575331811
2,3, 5, 5, 0, 8,50.00,60.00,Friday
148,26.07393126671606
2,3, 5, 5, 0, 8, 0.00,60.00,Friday
596,-32.59437714743623
597,100.0
2,3, 5, 5, 0, 9, 0.00,10.00,Friday
148,26.133527418265975
2,3, 5, 5, 0, 9,10.00,20.00,Friday
148,26.28822738755407
2,3, 5, 5, 0, 9,20.00,30.00,Friday
148,26.42217711930297
2,3, 5, 5, 0, 9,30.00,40.00,Friday
148,26.52279082804245
2,3, 5, 5, 0, 9,40.00,50.00,Friday
148,26.594179857932674
2,3, 5, 5, 0, 9,50.00,60.00,Friday
148,26.646628457403386
2,3, 5, 5, 0, 9, 0.00,60.00,Friday
596,-30.97712048563729
597,100.0
2,3, 5, 5, 0,10, 0.00,10.00,Friday
148,28.715152242796763
2,3, 5, 5, 0,10,10.00,20.00,Friday
148,29.07984949357223
2,3, 5, 5, 0,10,20.00,30.00,Friday
148,29.38684953341991
2,3, 5, 5, 0,10,30.00,40.00,Friday
148,29.89346744934721
2,3, 5, 5, 0,10,40.00,50.00,Friday
148,30.083085077804396
2,3, 5, 5, 0,10,50.00,60.00,Friday
148,30.077858246297909
2,3, 5, 5, 0,10, 0.00,60.00,Friday
596,0.899128800623993
597,22.54394036152372
2,3, 5, 5, 0,11, 0.00,10.00,Friday
148,30.084041280504498
2,3, 5, 5, 0,11,10.00,20.00,Friday
148,30.224977603038718
2,3, 5, 5, 0,11,20.00,30.00,Friday
148,30.37326902255492
2,3, 5, 5, 0,11,30.00,40.00,Friday
148,30.455692550099415
2,3, 5, 5, 0,11,40.00,50.00,Friday
148,30.639094593140265
2,3, 5, 5, 0,11,50.00,60.00,Friday
148,30.75242437415124
2,3, 5, 5, 0,11, 0.00,60.00,Friday
596,1.2271253355989483
597,36.696571623483219
2,3, 5, 5, 0,12, 0.00,10.00,Friday
148,30.82866429860205
2,3, 5, 5, 0,12,10.00,20.00,Friday
148,30.91271477603775
2,3, 5, 5, 0,12,20.00,30.00,Friday
148,31.021546043744534
2,3, 5, 5, 0,12,30.00,40.00,Friday
148,31.170596366625433
2,3, 5, 5, 0,12,40.00,50.00,Friday
148,31.29399408347631
2,3, 5, 5, 0,12,50.00,60.00,Friday
148,31.377743531009857
2,3, 5, 5, 0,12, 0.00,60.00,Friday
596,1.5219826891197184
597,52.10948073381783
2,3, 5, 5, 0,13, 0.00,10.00,Friday
148,31.45191109918874
2,3, 5, 5, 0,13,10.00,20.00,Friday
148,31.57246838202508
2,3, 5, 5, 0,13,20.00,30.00,Friday
148,31.741657133866068
2,3, 5, 5, 0,13,30.00,40.00,Friday
148,31.804623482426778
2,3, 5, 5, 0,13,40.00,50.00,Friday
148,31.935621045895535
2,3, 5, 5, 0,13,50.00,60.00,Friday
148,31.995952856745136
2,3, 5, 5, 0,13, 0.00,60.00,Friday
596,1.7987790695800153
597,66.88361122553215
2,3, 5, 5, 0,14, 0.00,10.00,Friday
148,32.00133269541279
2,3, 5, 5, 0,14,10.00,20.00,Friday
148,32.122619587259688
2,3, 5, 5, 0,14,20.00,30.00,Friday
148,32.216362222629118
2,3, 5, 5, 0,14,30.00,40.00,Friday
148,32.29841221087811
2,3, 5, 5, 0,14,40.00,50.00,Friday
148,32.4505376265399
2,3, 5, 5, 0,14,50.00,60.00,Friday
148,32.5117519752508
2,3, 5, 5, 0,14, 0.00,60.00,Friday
596,2.035175274545728
597,78.21296926810722
2,3, 5, 5, 0,15, 0.00,10.00,Friday
148,32.55997046874619
2,3, 5, 5, 0,15,10.00,20.00,Friday
148,32.60445611154734
2,3, 5, 5, 0,15,20.00,30.00,Friday
148,32.67451434603434
2,3, 5, 5, 0,15,30.00,40.00,Friday
148,32.76803727594138
2,3, 5, 5, 0,15,40.00,50.00,Friday
148,32.89390041195718
2,3, 5, 5, 0,15,50.00,60.00,Friday
148,32.96534651954188
2,3, 5, 5, 0,15, 0.00,60.00,Friday
596,-17.894193958669076
597,100.0
2,3, 5, 5, 0,16, 0.00,10.00,Friday
148,33.04739516858737
2,3, 5, 5, 0,16,10.00,20.00,Friday
148,33.1296616999677
2,3, 5, 5, 0,16,20.00,30.00,Friday
148,33.20903847106845
2,3, 5, 5, 0,16,30.00,40.00,Friday
148,33.298077730776828
2,3, 5, 5, 0,16,40.00,50.00,Friday
148,33.43391073668978
2,3, 5, 5, 0,16,50.00,60.00,Friday
148,33.44812527009157
2,3, 5, 5, 0,16, 0.00,60.00,Friday
596,-7.296041835357362
597,86.48117983182455
2,3, 5, 5, 0,17, 0.00,10.00,Friday
148,33.42504304514832
2,3, 5, 5, 0,17,10.00,20.00,Friday
148,33.47678648274214
2,3, 5, 5, 0,17,20.00,30.00,Friday
148,33.51561712489241
2,3, 5, 5, 0,17,30.00,40.00,Friday
148,33.481440631116679
2,3, 5, 5, 0,17,40.00,50.00,Friday
148,33.42965389376872
2,3, 5, 5, 0,17,50.00,60.00,Friday
148,33.39994468566869
2,3, 5, 5, 0,17, 0.00,60.00,Friday
596,2.5766828194036188
597,94.89678541760782
2,3, 5, 5, 0,18, 0.00,10.00,Friday
148,33.43495205907125
2,3, 5, 5, 0,18,10.00,20.00,Friday
148,33.520905680886468
2,3, 5, 5, 0,18,20.00,30.00,Friday
148,33.61928772757486
2,3, 5, 5, 0,18,30.00,40.00,Friday
148,33.66759984181044
2,3, 5, 5, 0,18,40.00,50.00,Friday
148,33.697294644201637
2,3, 5, 5, 0,18,50.00,60.00,Friday
148,33.67112860155886
2,3, 5, 5, 0,18, 0.00,60.00,Friday
596,2.6638365635654668
597,96.23828168330884
2,3, 5, 5, 0,19, 0.00,10.00,Friday
148,32.216598699899659
2,3, 5, 5, 0,19,10.00,20.00,Friday
148,31.74253343988284
2,3, 5, 5, 0,19,20.00,30.00,Friday
148,31.52982337811189
2,3, 5, 5, 0,19,30.00,40.00,Friday
148,31.26014975041822
2,3, 5, 5, 0,19,40.00,50.00,Friday
148,31.14156546885429
2,3, 5, 5, 0,19,50.00,60.00,Friday
148,30.96055654579967
2,3, 5, 5, 0,19, 0.00,60.00,Friday
596,-15.799288817610814
597,100.0
2,3, 5, 5, 0,20, 0.00,10.00,Friday
148,30.789415483124946
2,3, 5, 5, 0,20,10.00,20.00,Friday
148,30.68946797400361
2,3, 5, 5, 0,20,20.00,30.00,Friday
148,30.63966471948867
2,3, 5, 5, 0,20,30.00,40.00,Friday
148,30.610719377823309
2,3, 5, 5, 0,20,40.00,50.00,Friday