Program Version,EnergyPlus, Version 9.5.0-de239b2e5f, YMD=2021.12.09 18:58
1,5,Environment Title[],Latitude[deg],Longitude[deg],Time Zone[],Elevation[m]
2,8,Day of Simulation[],Month[],Day of Month[],DST Indicator[1=yes 0=no],Hour[],StartMinute[],EndMinute[],DayType
3,5,Cumulative Day of Simulation[],Month[],Day of Month[],DST Indicator[1=yes 0=no],DayType  ! When Daily Report Variables Requested
4,2,Cumulative Days of Simulation[],Month[]  ! When Monthly Report Variables Requested
5,1,Cumulative Days of Simulation[] ! When Run Period Report Variables Requested
6,1,Calendar Year of Simulation[] ! When Annual Report Variables Requested
148,1,THERMAL ZONE: JORGE,Zone Mean Air Temperature [C] !TimeStep
596,1,JORGE,Zone Thermal Comfort Fanger Model PMV [] !TimeStep
597,1,JORGE,Zone Thermal Comfort Fanger Model PPD [%] !TimeStep
End of Data Dictionary
1,RUN PERIOD 1,  18.85, -99.14,  -6.00,1280.00
2,1, 5, 3, 0, 1, 0.00,10.00,Wednesday
148,27.205089172305195
596,-0.47541228750142297
597,9.720087031513785
2,1, 5, 3, 0, 1,10.00,20.00,Wednesday
148,27.03006417062338
596,-0.5314369779498538
597,10.908677492838877
2,1, 5, 3, 0, 1,20.00,30.00,Wednesday
148,26.92203875695432
596,-0.5757666437713076
597,11.945440315491965
2,1, 5, 3, 0, 1,30.00,40.00,Wednesday
148,26.858204084174799
596,-0.6129607348322661
597,12.881085901618349
2,1, 5, 3, 0, 1,40.00,50.00,Wednesday
148,26.806019680665107
596,-0.6452085287296958
597,13.740892415418074
2,1, 5, 3, 0, 1,50.00,60.00,Wednesday
148,26.74307048658422
596,-0.6812471041690793
597,14.755115522254969
2,1, 5, 3, 0, 2, 0.00,10.00,Wednesday
148,26.673740597179895
596,-0.7192296646945531
597,15.884840005057
2,1, 5, 3, 0, 2,10.00,20.00,Wednesday
148,26.631174805546786
596,-0.7479782609586454
597,16.78123303615409
2,1, 5, 3, 0, 2,20.00,30.00,Wednesday
148,26.53501335740101
596,-0.7954495410452372
597,18.338815986279728
2,1, 5, 3, 0, 2,30.00,40.00,Wednesday
148,26.498389661217705
596,-0.8202319512439216
597,19.18995895674503
2,1, 5, 3, 0, 2,40.00,50.00,Wednesday
148,26.456882199697217
596,-0.8455421952623283
597,20.08588130752736
2,1, 5, 3, 0, 2,50.00,60.00,Wednesday
148,26.415081449613134
596,-0.8735047013780279
597,21.106704491900204
2,1, 5, 3, 0, 3, 0.00,10.00,Wednesday
148,26.36894356276899
596,-0.9040344331616596
597,22.257988044152755
2,1, 5, 3, 0, 3,10.00,20.00,Wednesday
148,26.33399357247024
596,-0.9264312422693158
597,23.1266388843773
2,1, 5, 3, 0, 3,20.00,30.00,Wednesday
148,26.280570176829007
596,-0.9548938022113883
597,24.259476196891187
2,1, 5, 3, 0, 3,30.00,40.00,Wednesday
148,26.210597244191925
596,-0.9926653827142734
597,25.811841801558204
2,1, 5, 3, 0, 3,40.00,50.00,Wednesday
148,26.154413924593034
596,-1.0223595541578843
597,27.070537424092877
2,1, 5, 3, 0, 3,50.00,60.00,Wednesday
148,26.100803705512698
596,-1.0562608513067023
597,28.54756525322702
2,1, 5, 3, 0, 4, 0.00,10.00,Wednesday
148,26.04765238831087
596,-1.0880237784745599
597,29.968875140735407
2,1, 5, 3, 0, 4,10.00,20.00,Wednesday
148,26.001765985553594
596,-1.1151522405437238
597,31.210465174926428
2,1, 5, 3, 0, 4,20.00,30.00,Wednesday
148,25.968184545650695
596,-1.1421046500971242
597,32.46828945351656
2,1, 5, 3, 0, 4,30.00,40.00,Wednesday
148,25.874952069621693
596,-1.1893346844298685
597,34.727888674951049
2,1, 5, 3, 0, 4,40.00,50.00,Wednesday
148,25.768065219944395
596,-1.2450408067967068
597,37.4769482131599
2,1, 5, 3, 0, 4,50.00,60.00,Wednesday
148,25.688526735749034
596,-1.2842043776113326
597,39.45871288020276
2,1, 5, 3, 0, 5, 0.00,10.00,Wednesday
148,25.65401705206369
596,-1.3117848535387283
597,40.8761760624364
2,1, 5, 3, 0, 5,10.00,20.00,Wednesday
148,25.622919769410275
596,-1.3346259410879875
597,42.062504579705599
2,1, 5, 3, 0, 5,20.00,30.00,Wednesday
148,25.58605856668527
596,-1.356361923906085
597,43.201036466175128
2,1, 5, 3, 0, 5,30.00,40.00,Wednesday
148,25.541941482154788
596,-1.38268801952135
597,44.591380750187969
2,1, 5, 3, 0, 5,40.00,50.00,Wednesday
148,25.528624313486938
596,-1.395217348610553
597,45.25707216435048
2,1, 5, 3, 0, 5,50.00,60.00,Wednesday
148,25.465057727397278
596,-1.4346881088085784
597,47.36877926611006
2,1, 5, 3, 0, 6, 0.00,10.00,Wednesday
148,25.402120801567123
596,-1.4680775934696673
597,49.169479679386579
2,1, 5, 3, 0, 6,10.00,20.00,Wednesday
148,25.27660429246034
596,-1.5335888570292338
597,52.72739877017543
2,1, 5, 3, 0, 6,20.00,30.00,Wednesday
148,25.184109958764329
596,-1.5769032043565808
597,55.08752397710049
2,1, 5, 3, 0, 6,30.00,40.00,Wednesday
148,25.082228487519534
596,-1.6357810477988946
597,58.2893485452475
2,1, 5, 3, 0, 6,40.00,50.00,Wednesday
148,24.99912482969323
596,-1.6760029778366775
597,60.46312981702188
2,1, 5, 3, 0, 6,50.00,60.00,Wednesday
148,24.933316120486745
596,-1.71421492787772
597,62.51128800094237
2,1, 5, 3, 0, 7, 0.00,10.00,Wednesday
148,24.897064496930388
596,-1.7372348471730557
597,63.73478823315076
2,1, 5, 3, 0, 7,10.00,20.00,Wednesday
148,24.893941387208075
596,-1.746010517358265
597,64.19883723459846
2,1, 5, 3, 0, 7,20.00,30.00,Wednesday
148,24.87467426380263
596,-1.7663807060894213
597,65.27043278257745
2,1, 5, 3, 0, 7,30.00,40.00,Wednesday
148,24.802839274878907
596,-1.8072296044496004
597,67.39307416606127
2,1, 5, 3, 0, 7,40.00,50.00,Wednesday
148,24.741468841015256
596,-1.833477957062813
597,68.73607112455972
2,1, 5, 3, 0, 7,50.00,60.00,Wednesday
148,24.780810199009346
596,-1.814480368837252
597,67.76580274120932
2,1, 5, 3, 0, 8, 0.00,10.00,Wednesday
148,24.81329796970199
596,-1.806830914072504
597,67.37254199582124
2,1, 5, 3, 0, 8,10.00,20.00,Wednesday
148,24.794558415358016
596,-1.8174132160025874
597,67.91619648804772
2,1, 5, 3, 0, 8,20.00,30.00,Wednesday
148,24.830949752875868
596,-1.7973388589892557
597,66.88258666600757
2,1, 5, 3, 0, 8,30.00,40.00,Wednesday
148,24.881554272097838
596,-1.771759528981972
597,65.55201647498237
2,1, 5, 3, 0, 8,40.00,50.00,Wednesday
148,24.979790573969717
596,-1.7264293593458795
597,63.161561228349878
2,1, 5, 3, 0, 8,50.00,60.00,Wednesday
148,25.11752627509262
596,-1.6655477306651066
597,59.89959224406225
2,1, 5, 3, 0, 9, 0.00,10.00,Wednesday
148,25.224537074272008
596,-1.6012498337142285
597,56.41332644632276
2,1, 5, 3, 0, 9,10.00,20.00,Wednesday
148,25.34351442041133
596,-1.557312646585823
597,54.01996411966678
2,1, 5, 3, 0, 9,20.00,30.00,Wednesday
148,25.44248427209301
596,-1.5185094131457824
597,51.90648839772812
2,1, 5, 3, 0, 9,30.00,40.00,Wednesday
148,25.516433369438933
596,-1.4825820709794098
597,49.9549147743501
2,1, 5, 3, 0, 9,40.00,50.00,Wednesday
148,25.591694400683875
596,-1.4402014682945366
597,47.66530961517128
2,1, 5, 3, 0, 9,50.00,60.00,Wednesday
148,25.67299977938649
596,-1.399074527257735
597,45.462487579949989
2,1, 5, 3, 0,10, 0.00,10.00,Wednesday
148,27.719447071223429
596,0.30919411008599326
597,6.987026347645823
2,1, 5, 3, 0,10,10.00,20.00,Wednesday
148,28.09205240164087
596,0.4327543708827718
597,8.905867281276386
2,1, 5, 3, 0,10,20.00,30.00,Wednesday
148,28.372519791460968
596,0.5027536585941651
597,10.28319984016538
2,1, 5, 3, 0,10,30.00,40.00,Wednesday
148,28.870429398460105
596,0.6315439271667217
597,13.371051783309526
2,1, 5, 3, 0,10,40.00,50.00,Wednesday
148,29.065707605574759
596,0.6999386720875792
597,15.30328072972533
2,1, 5, 3, 0,10,50.00,60.00,Wednesday
148,29.07111116055202
596,0.7206273926611665
597,15.927599965550101
2,1, 5, 3, 0,11, 0.00,10.00,Wednesday
148,29.105890106247359
596,0.7420804002863319
597,16.594441777284247
2,1, 5, 3, 0,11,10.00,20.00,Wednesday
148,29.24652459715041
596,0.8023950781678538
597,18.5747415825891
2,1, 5, 3, 0,11,20.00,30.00,Wednesday
148,29.39038334723733
596,0.8615862606568729
597,20.667640244397647
2,1, 5, 3, 0,11,30.00,40.00,Wednesday
148,29.50894629640905
596,0.912996400825485
597,22.6031476848721
2,1, 5, 3, 0,11,40.00,50.00,Wednesday
148,29.61242916150746
596,0.9605596368765972
597,24.488799670164469
2,1, 5, 3, 0,11,50.00,60.00,Wednesday
148,29.694489308692057
596,0.9972310859304521
597,26.003207999927967
2,1, 5, 3, 0,12, 0.00,10.00,Wednesday
148,29.858183343999273
596,1.0621055277904217
597,28.806419681415279
2,1, 5, 3, 0,12,10.00,20.00,Wednesday
148,29.944802429531415
596,1.093899873288989
597,30.235678877625888
2,1, 5, 3, 0,12,20.00,30.00,Wednesday
148,30.150598805629188
596,1.1761090997209068
597,34.08826705342533
2,1, 5, 3, 0,12,30.00,40.00,Wednesday
148,30.25062740213466
596,1.217663226261387
597,36.115098580800808
2,1, 5, 3, 0,12,40.00,50.00,Wednesday
148,30.40919149718644
596,1.2815314551193143
597,39.32226640715631
2,1, 5, 3, 0,12,50.00,60.00,Wednesday
148,30.55330425316435
596,1.3382514072184513
597,42.251778081731519
2,1, 5, 3, 0,13, 0.00,10.00,Wednesday
148,30.715003563449998
596,1.4042649745622107
597,45.73925007286247
2,1, 5, 3, 0,13,10.00,20.00,Wednesday
148,30.849453090487676
596,1.4477593026731542
597,48.07234756698916
2,1, 5, 3, 0,13,20.00,30.00,Wednesday
148,30.959058772715069
596,1.4940380323700565
597,50.57637607584011
2,1, 5, 3, 0,13,30.00,40.00,Wednesday
148,31.060578860123458
596,1.539447082223401
597,53.046491665738319
2,1, 5, 3, 0,13,40.00,50.00,Wednesday
148,31.178111705616919
596,1.5826400962578058
597,55.400065149943518
2,1, 5, 3, 0,13,50.00,60.00,Wednesday
148,31.22580103196139
596,1.5993350131504403
597,56.30912126187356
2,1, 5, 3, 0,14, 0.00,10.00,Wednesday
148,31.217102975899477
596,1.625437836802424
597,57.728159066989459
2,1, 5, 3, 0,14,10.00,20.00,Wednesday
148,31.333140693421766
596,1.6922807993809964
597,61.33797981896031
2,1, 5, 3, 0,14,20.00,30.00,Wednesday
148,31.4921046368747
596,1.750752283642866
597,64.44899333195619
2,1, 5, 3, 0,14,30.00,40.00,Wednesday
148,31.60782850855916
596,1.7989133066296948
597,66.96400313871696
2,1, 5, 3, 0,14,40.00,50.00,Wednesday
148,31.721979739157747
596,1.8574563426226645
597,69.94688416954026
2,1, 5, 3, 0,14,50.00,60.00,Wednesday
148,31.927161932388459
596,1.935945671122337
597,73.78770583338107
2,1, 5, 3, 0,15, 0.00,10.00,Wednesday
148,31.865095213146874
596,1.900787197849313
597,72.09195463368472
2,1, 5, 3, 0,15,10.00,20.00,Wednesday
148,31.932509966882308
596,1.9461942387779166
597,74.27389128814278
2,1, 5, 3, 0,15,20.00,30.00,Wednesday
148,32.10343605801883
596,2.0256126570299348
597,77.90577693205292
2,1, 5, 3, 0,15,30.00,40.00,Wednesday
148,32.22694157862897
596,2.0762824518857414
597,80.08665232316031
2,1, 5, 3, 0,15,40.00,50.00,Wednesday
148,32.306733357683729
596,2.1029175064866507
597,81.18715559530259
2,1, 5, 3, 0,15,50.00,60.00,Wednesday
148,32.414005543046588
596,2.1477508768592199
597,82.96481094015172
2,1, 5, 3, 0,16, 0.00,10.00,Wednesday
148,32.52955746556107
596,2.1978241496068766
597,84.8353303578927
2,1, 5, 3, 0,16,10.00,20.00,Wednesday
148,32.62601980739549
596,2.2282374725229689
597,85.91057448432108
2,1, 5, 3, 0,16,20.00,30.00,Wednesday
148,32.66088791126003
596,2.243276575788005
597,86.42500880328066
2,1, 5, 3, 0,16,30.00,40.00,Wednesday
148,32.696352916500398
596,2.2593677295917877
597,86.96268719218767
2,1, 5, 3, 0,16,40.00,50.00,Wednesday
148,32.74100361865825
596,2.2812911234599819
597,87.67395173507843
2,1, 5, 3, 0,16,50.00,60.00,Wednesday
148,32.64127382002914
596,2.2388987373400974
597,86.2764433585638
2,1, 5, 3, 0,17, 0.00,10.00,Wednesday
148,32.49484178579818
596,2.2068471507865126
597,85.15918278263146
2,1, 5, 3, 0,17,10.00,20.00,Wednesday
148,32.373579242425169
596,2.1640995108453846
597,83.58906123724282
2,1, 5, 3, 0,17,20.00,30.00,Wednesday
148,32.26632930595619
596,2.1240826951116205
597,82.03823276361935
2,1, 5, 3, 0,17,30.00,40.00,Wednesday
148,32.12190721086503
596,2.0934542430552769
597,80.79987553292023
2,1, 5, 3, 0,17,40.00,50.00,Wednesday
148,32.0466670858722
596,2.079264827679239
597,80.21148468108345
2,1, 5, 3, 0,17,50.00,60.00,Wednesday
148,32.12025567813346
596,2.107082008516349
597,81.356271784917
2,1, 5, 3, 0,18, 0.00,10.00,Wednesday
148,32.11890910101883
596,2.109642300437074
597,81.4598416776445
2,1, 5, 3, 0,18,10.00,20.00,Wednesday
148,32.06863885308806
596,2.0958192793063574
597,80.89705087732813
2,1, 5, 3, 0,18,20.00,30.00,Wednesday
148,32.04428630976815
596,2.095708498149752
597,80.89250481234262
2,1, 5, 3, 0,18,30.00,40.00,Wednesday
148,32.053574892136399
596,2.105986795717663
597,81.31187449336818
2,1, 5, 3, 0,18,40.00,50.00,Wednesday
148,32.09545650196675
596,2.1294627477455294
597,82.2512051676519
2,1, 5, 3, 0,18,50.00,60.00,Wednesday
148,32.13067313555631
596,2.147771191838524
597,82.96559468968826
2,1, 5, 3, 0,19, 0.00,10.00,Wednesday
148,30.688463140163706
596,1.1920688491596255
597,34.860766862019378
2,1, 5, 3, 0,19,10.00,20.00,Wednesday
148,30.21339255250115
596,1.0454888290862379
597,28.07370200070278
2,1, 5, 3, 0,19,20.00,30.00,Wednesday
148,29.945267912965659
596,0.9548339580891625
597,24.257060740136767
2,1, 5, 3, 0,19,30.00,40.00,Wednesday
148,29.42955201581392
596,0.818696571210821
597,19.13647434810906
2,1, 5, 3, 0,19,40.00,50.00,Wednesday
148,29.1839088792797
596,0.737475111916611
597,16.44962500757464
2,1, 5, 3, 0,19,50.00,60.00,Wednesday
148,29.129595678930817
596,0.690051966153328
597,15.01145360247331
2,1, 5, 3, 0,20, 0.00,10.00,Wednesday
148,29.10629730683285
596,0.6634521561649205
597,14.247286533407888
2,1, 5, 3, 0,20,10.00,20.00,Wednesday
148,29.04558272424939
596,0.6275559499819482
597,13.264641667113722
2,1, 5, 3, 0,20,20.00,30.00,Wednesday
148,28.975751145007338
596,0.5898132349809787
597,12.291737660910542
2,1, 5, 3, 0,20,30.00,40.00,Wednesday
148,28.888596519736013
596,0.5510072304188152
597,11.355875259167746
2,1, 5, 3, 0,20,40.00,50.00,Wednesday
148,28.788791250486768
596,0.5017139450278538
597,10.261195781737058
2,1, 5, 3, 0,20,50.00,60.00,Wednesday
148,28.69911951782342
596,0.45211508287075827
597,9.265704516426496
2,1, 5, 3, 0,21, 0.00,10.00,Wednesday
148,28.646453753865495
596,0.4173514030286405
597,8.631086081855813
2,1, 5, 3, 0,21,10.00,20.00,Wednesday
148,28.587960101607054
596,0.3891047088788442
597,8.153592889553679
2,1, 5, 3, 0,21,20.00,30.00,Wednesday
148,28.50697638628826
596,0.3405549177541674
597,7.4124803680862929
2,1, 5, 3, 0,21,30.00,40.00,Wednesday
148,28.43340574488656
596,0.29480984570930587
597,6.805817305422039
2,1, 5, 3, 0,21,40.00,50.00,Wednesday
148,28.386593501935626
596,0.25925151996903608
597,6.39534912980983
2,1, 5, 3, 0,21,50.00,60.00,Wednesday
148,28.30956639489052
596,0.20157875741803739
597,5.842644075965495
2,1, 5, 3, 0,22, 0.00,10.00,Wednesday
148,28.25382779801824
596,0.1593958197372769
597,5.526529828924566
2,1, 5, 3, 0,22,10.00,20.00,Wednesday
148,28.19772102669484
596,0.10984902065316218
597,5.249923433621419
2,1, 5, 3, 0,22,20.00,30.00,Wednesday
148,28.120385248734757
596,0.061162539149281009
597,5.077450580763227
2,1, 5, 3, 0,22,30.00,40.00,Wednesday
148,28.03035608164586
596,0.019256514709932793
597,5.007676149787827
2,1, 5, 3, 0,22,40.00,50.00,Wednesday
148,27.965229856615268
596,-0.01731876902556764
597,5.006208986668327
2,1, 5, 3, 0,22,50.00,60.00,Wednesday
148,27.903357406251929
596,-0.061509210259801359
597,5.078331202419761
2,1, 5, 3, 0,23, 0.00,10.00,Wednesday
148,27.879954240663275
596,-0.08237961451162952
597,5.140524558630119
2,1, 5, 3, 0,23,10.00,20.00,Wednesday
148,27.848766021049579
596,-0.09638189878576988
597,5.192376513607215
2,1, 5, 3, 0,23,20.00,30.00,Wednesday
148,27.799330050062957
596,-0.13060198649187725
597,5.353353871213713
2,1, 5, 3, 0,23,30.00,40.00,Wednesday
148,27.745587181823085
596,-0.16665259078129855
597,5.575622788898343
2,1, 5, 3, 0,23,40.00,50.00,Wednesday
148,27.67243845651192
596,-0.19865918885220266
597,5.818371012473577
2,1, 5, 3, 0,23,50.00,60.00,Wednesday
148,27.64706732765874
596,-0.21358225818536737
597,5.946187659581085
2,1, 5, 3, 0,24, 0.00,10.00,Wednesday
148,27.613402353360244
596,-0.23455988023047637
597,6.141634124355036
2,1, 5, 3, 0,24,10.00,20.00,Wednesday
148,27.561260120436765
596,-0.2631842676913633
597,6.438126148402944
2,1, 5, 3, 0,24,20.00,30.00,Wednesday
148,27.506724097242374
596,-0.29229925170166817
597,6.775086013537205
2,1, 5, 3, 0,24,30.00,40.00,Wednesday
148,27.464156792185056
596,-0.31678465218432358
597,7.0861787557815039
2,1, 5, 3, 0,24,40.00,50.00,Wednesday
148,27.422684229680898
596,-0.3433481587120985
597,7.452398775261372
2,1, 5, 3, 0,24,50.00,60.00,Wednesday
148,27.388252065402715
596,-0.3671713051653191
597,7.806341780584134
2,2, 5, 4, 0, 1, 0.00,10.00,Thursday
148,27.364428623076124
596,-0.3881900353265841
597,8.13870134605422
2,2, 5, 4, 0, 1,10.00,20.00,Thursday
148,27.287688707122116
596,-0.42671409661565287
597,8.796898600887602
2,2, 5, 4, 0, 1,20.00,30.00,Thursday
148,27.20699040466744
596,-0.46147999299574596
597,9.445545424447588
2,2, 5, 4, 0, 1,30.00,40.00,Thursday
148,27.12752581781675
596,-0.5004418523421681
597,10.234337295642434
2,2, 5, 4, 0, 1,40.00,50.00,Thursday
148,27.075298012900697
596,-0.5254117937155254
597,10.774336625967166
2,2, 5, 4, 0, 1,50.00,60.00,Thursday
148,27.041818884123889
596,-0.5475702969324031
597,11.276136881361197
2,2, 5, 4, 0, 2, 0.00,10.00,Thursday
148,27.01130076067581
596,-0.5693254308247855
597,11.789504932511378
2,2, 5, 4, 0, 2,10.00,20.00,Thursday
148,26.9733202677125
596,-0.5940853492160138
597,12.398758203807788
2,2, 5, 4, 0, 2,20.00,30.00,Thursday
148,26.93878625502917
596,-0.6144347727304452
597,12.9194032986276
2,2, 5, 4, 0, 2,30.00,40.00,Thursday
148,26.901541417955064
596,-0.6387504034859096
597,13.56509009411009
2,2, 5, 4, 0, 2,40.00,50.00,Thursday
148,26.8641773050062
596,-0.6614701621070065
597,14.191573360695842
2,2, 5, 4, 0, 2,50.00,60.00,Thursday
148,26.824376636744696
596,-0.6867159771660262
597,14.913937754973958
2,2, 5, 4, 0, 3, 0.00,10.00,Thursday
148,26.77582374220874
596,-0.7163121985865472
597,15.795858563308812
2,2, 5, 4, 0, 3,10.00,20.00,Thursday
148,26.70584074188743
596,-0.7556412386013522
597,17.026153509266267
2,2, 5, 4, 0, 3,20.00,30.00,Thursday
148,26.662999866978546
596,-0.7832297850430535
597,17.92869991639536
2,2, 5, 4, 0, 3,30.00,40.00,Thursday
148,26.588352978297505
596,-0.8207988581151098
597,19.2097320858489
2,2, 5, 4, 0, 3,40.00,50.00,Thursday
148,26.507602493029116
596,-0.8573551516531268
597,20.513182625025153
2,2, 5, 4, 0, 3,50.00,60.00,Thursday
148,26.46451435629954
596,-0.8874674293471269
597,21.62851464081548
2,2, 5, 4, 0, 4, 0.00,10.00,Thursday
148,26.380566986309409
596,-0.930997776303682
597,23.30622273827389
2,2, 5, 4, 0, 4,10.00,20.00,Thursday
148,26.272481905204644
596,-0.9803831929214445
597,25.301004883685139
2,2, 5, 4, 0, 4,20.00,30.00,Thursday
148,26.22576139207718
596,-1.0098011632138966
597,26.53415325601739
2,2, 5, 4, 0, 4,30.00,40.00,Thursday
148,26.14988295352083
596,-1.0478362326093378
597,28.176607335612688
2,2, 5, 4, 0, 4,40.00,50.00,Thursday
148,26.069123109692034
596,-1.0837975384857608
597,29.777720404980728
2,2, 5, 4, 0, 4,50.00,60.00,Thursday
148,26.05654879801373
596,-1.0962499006800116
597,30.342713868492568
2,2, 5, 4, 0, 5, 0.00,10.00,Thursday
148,25.97553553672352
596,-1.1408034225747364
597,32.40702117381758
2,2, 5, 4, 0, 5,10.00,20.00,Thursday
148,25.88785822682195
596,-1.183528011313951
597,34.4464212710611
2,2, 5, 4, 0, 5,20.00,30.00,Thursday
148,25.840175516770857
596,-1.206235315565747
597,35.55272832058627
2,2, 5, 4, 0, 5,30.00,40.00,Thursday
148,25.819800513813197
596,-1.224775630240997
597,36.46694034162952
2,2, 5, 4, 0, 5,40.00,50.00,Thursday
148,25.786721655111216
596,-1.2524401772835328
597,37.84842747465751
2,2, 5, 4, 0, 5,50.00,60.00,Thursday
148,25.721481880856186
596,-1.2876043776222249
597,39.63251700552624
2,2, 5, 4, 0, 6, 0.00,10.00,Thursday
148,25.66666751920448
596,-1.312676764302028
597,40.922295752290377
2,2, 5, 4, 0, 6,10.00,20.00,Thursday
148,25.579054533357053
596,-1.3645644960512809
597,43.63295516901013
2,2, 5, 4, 0, 6,20.00,30.00,Thursday
148,25.537749342900506
596,-1.390250225071833
597,44.992875244343199
2,2, 5, 4, 0, 6,30.00,40.00,Thursday
148,25.447151753688077
596,-1.4408311352358039
597,47.69919743510216
2,2, 5, 4, 0, 6,40.00,50.00,Thursday
148,25.34310233923579
596,-1.4876433799250986
597,50.2293690859179
2,2, 5, 4, 0, 6,50.00,60.00,Thursday
148,25.294917920442946
596,-1.5085378352826218
597,51.36412707754382
2,2, 5, 4, 0, 7, 0.00,10.00,Thursday
148,25.312926400802114
596,-1.5101922256822418
597,51.45407897947608
2,2, 5, 4, 0, 7,10.00,20.00,Thursday
148,25.325899590902084
596,-1.5133396128973025
597,51.62524346473217
2,2, 5, 4, 0, 7,20.00,30.00,Thursday
148,25.291622679347868
596,-1.5352210038535564
597,52.81629240333264
2,2, 5, 4, 0, 7,30.00,40.00,Thursday
148,25.271899152460816
596,-1.5504416047341883
597,53.64552766248458
2,2, 5, 4, 0, 7,40.00,50.00,Thursday
148,25.258620082751034
596,-1.5560759544491894
597,53.95256874938362
2,2, 5, 4, 0, 7,50.00,60.00,Thursday
148,25.25326409542294
596,-1.560356801441324
597,54.18586152263026
2,2, 5, 4, 0, 8, 0.00,10.00,Thursday
148,25.251800706846454
596,-1.5646148335685453
597,54.417911346933177
2,2, 5, 4, 0, 8,10.00,20.00,Thursday
148,25.262047961678087
596,-1.5617821390354872
597,54.263538422808348
2,2, 5, 4, 0, 8,20.00,30.00,Thursday
148,25.276626548986145
596,-1.5558415853605972
597,53.93979652800781
2,2, 5, 4, 0, 8,30.00,40.00,Thursday
148,25.315666419436569
596,-1.5338791810499642
597,52.74321055401638
2,2, 5, 4, 0, 8,40.00,50.00,Thursday
148,25.39489123573709
596,-1.4951994816176169
597,50.63943068675582
2,2, 5, 4, 0, 8,50.00,60.00,Thursday
148,25.501902613614797
596,-1.4507204478521743
597,48.231989620398568
2,2, 5, 4, 0, 9, 0.00,10.00,Thursday
148,25.551830698222717
596,-1.4241186725249136
597,46.80131374259724
2,2, 5, 4, 0, 9,10.00,20.00,Thursday
148,25.604922816339987
596,-1.4098133846526815
597,46.0355232395029
2,2, 5, 4, 0, 9,20.00,30.00,Thursday
148,25.700491862560204
596,-1.356236229998443
597,43.194427237209698
2,2, 5, 4, 0, 9,30.00,40.00,Thursday
148,25.814570458943704
596,-1.3044072370209059
597,40.495348407502579
2,2, 5, 4, 0, 9,40.00,50.00,Thursday
148,25.922614508995375
596,-1.2506109566685433
597,37.75646150523203
2,2, 5, 4, 0, 9,50.00,60.00,Thursday
148,25.983555160486764
596,-1.2326070834641179
597,36.85595290416182
2,2, 5, 4, 0,10, 0.00,10.00,Thursday
148,27.937431397467408
596,0.38392347075950758
597,8.069710777985535
2,2, 5, 4, 0,10,10.00,20.00,Thursday
148,28.21567566043415
596,0.47991175324318849
597,9.810538412973145
2,2, 5, 4, 0,10,20.00,30.00,Thursday
148,28.491380756634919
596,0.5532549228861555
597,11.408299653312909
2,2, 5, 4, 0,10,30.00,40.00,Thursday
148,28.933422832976587
596,0.6637810841917584
597,14.256549050751432
2,2, 5, 4, 0,10,40.00,50.00,Thursday
148,29.1082727720833
596,0.728582154941847
597,16.17255676007136
2,2, 5, 4, 0,10,50.00,60.00,Thursday
148,29.160005369140568
596,0.767386010568976
597,17.4064090628586
2,2, 5, 4, 0,11, 0.00,10.00,Thursday
148,29.23462885474192
596,0.80786501600433
597,18.76198015442708
2,2, 5, 4, 0,11,10.00,20.00,Thursday
148,29.340097621384314
596,0.853269404041542
597,20.364735928972267
2,2, 5, 4, 0,11,20.00,30.00,Thursday
148,29.419353188268695
596,0.8868888876888947
597,21.60673487745403
2,2, 5, 4, 0,11,30.00,40.00,Thursday
148,29.55961261670623
596,0.943195354420725
597,23.78997956337237
2,2, 5, 4, 0,11,40.00,50.00,Thursday
148,29.689986420539755
596,0.9879045073156206
597,25.613142508871634
2,2, 5, 4, 0,11,50.00,60.00,Thursday
148,29.788651813440717
596,1.037182852869975
597,27.711195013360638
2,2, 5, 4, 0,12, 0.00,10.00,Thursday
148,29.96327461551217
596,1.1072032661361236
597,30.844081559987147
2,2, 5, 4, 0,12,10.00,20.00,Thursday
148,30.094921093648375
596,1.154013502930147
597,33.03152168899267
2,2, 5, 4, 0,12,20.00,30.00,Thursday
148,30.221636476217918
596,1.2082405512174948
597,35.65113985866168
2,2, 5, 4, 0,12,30.00,40.00,Thursday
148,30.41522817099721
596,1.274013812097242
597,38.93941825704791
2,2, 5, 4, 0,12,40.00,50.00,Thursday
148,30.472762609820557
596,1.3008276031436366
597,40.311000335146768
2,2, 5, 4, 0,12,50.00,60.00,Thursday
148,30.514919085567209
596,1.3189249299271174
597,41.24585637321572
2,2, 5, 4, 0,13, 0.00,10.00,Thursday
148,30.67609642298878
596,1.3866672242632
597,44.80253377585888
2,2, 5, 4, 0,13,10.00,20.00,Thursday
148,30.859059514215603
596,1.461926987984047
597,48.836951607020797
2,2, 5, 4, 0,13,20.00,30.00,Thursday
148,30.971424813512188
596,1.5033564135910318
597,51.082494412879018
2,2, 5, 4, 0,13,30.00,40.00,Thursday
148,31.093117746017066
596,1.5474450317751885
597,53.48224245520602
2,2, 5, 4, 0,13,40.00,50.00,Thursday
148,31.19197268321794
596,1.5862482007909223
597,55.59659668546135
2,2, 5, 4, 0,13,50.00,60.00,Thursday
148,31.33610085730406
596,1.642791874882477
597,58.66929025465658
2,2, 5, 4, 0,14, 0.00,10.00,Thursday
148,31.418416955420338
596,1.6898797699748963
597,61.20914346457545
2,2, 5, 4, 0,14,10.00,20.00,Thursday
148,31.476532671506079
596,1.7153256039564866
597,62.570514818010369
2,2, 5, 4, 0,14,20.00,30.00,Thursday
148,31.52854717079309
596,1.737233181468978
597,63.73470002236141
2,2, 5, 4, 0,14,30.00,40.00,Thursday
148,31.581286328448546
596,1.7589537456708793
597,64.88066396781109
2,2, 5, 4, 0,14,40.00,50.00,Thursday
148,31.61986472308093
596,1.7749474499305776
597,65.71862155894493
2,2, 5, 4, 0,14,50.00,60.00,Thursday
148,31.78187592612436
596,1.8510265578632844
597,69.62378413362748
2,2, 5, 4, 0,15, 0.00,10.00,Thursday
148,31.948928432046356
596,1.9085433501973488
597,72.46964634389733
2,2, 5, 4, 0,15,10.00,20.00,Thursday
148,31.9851078322178
596,1.9222805098874889
597,73.13364247720432
2,2, 5, 4, 0,15,20.00,30.00,Thursday
148,32.012168581081187
596,1.9337987044848826
597,73.68537894707578
2,2, 5, 4, 0,15,30.00,40.00,Thursday
148,32.0505672718339
596,1.9505208624146933
597,74.47800134983915
2,2, 5, 4, 0,15,40.00,50.00,Thursday
148,32.086515200289827
596,1.9779652113005258
597,75.75643533429542
2,2, 5, 4, 0,15,50.00,60.00,Thursday
148,32.18102506317628
596,2.026118640582875
597,77.928101938081
2,2, 5, 4, 0,16, 0.00,10.00,Thursday
148,32.31768310533079
596,2.084234797535422
597,80.41861714715626
2,2, 5, 4, 0,16,10.00,20.00,Thursday
148,32.45449788916854
596,2.140718609779454
597,82.69231056010088
2,2, 5, 4, 0,16,20.00,30.00,Thursday
148,32.59124594446179
596,2.1873251450064696
597,84.45338520288448
2,2, 5, 4, 0,16,30.00,40.00,Thursday
148,32.63759811954711
596,2.210937368272389
597,85.30464414310437
2,2, 5, 4, 0,16,40.00,50.00,Thursday
148,32.643952865438
596,2.208848851138375
597,85.23047467838637
2,2, 5, 4, 0,16,50.00,60.00,Thursday
148,32.64400792795442
596,2.2102871128928487
597,85.28157513031138
2,2, 5, 4, 0,17, 0.00,10.00,Thursday
148,32.665453558239878
596,2.2372288141162559
597,86.21951654310365
2,2, 5, 4, 0,17,10.00,20.00,Thursday
148,32.70386032243202
596,2.2580090986421079
597,86.91779977126532
2,2, 5, 4, 0,17,20.00,30.00,Thursday
148,32.6834246708965
596,2.25003049724929
597,86.65229554881923
2,2, 5, 4, 0,17,30.00,40.00,Thursday
148,32.729109243113
596,2.2833590519086308
597,87.73977104505956
2,2, 5, 4, 0,17,40.00,50.00,Thursday
148,32.72662236286011
596,2.279045663405145
597,87.6022335023821
2,2, 5, 4, 0,17,50.00,60.00,Thursday
148,32.71213351587524
596,2.2704183097861216
597,87.32427883405573
2,2, 5, 4, 0,18, 0.00,10.00,Thursday
148,32.67988819306573
596,2.26224462592259
597,87.05742484484949
2,2, 5, 4, 0,18,10.00,20.00,Thursday
148,32.69869264212447
596,2.275879669912349
597,87.5006750106735
2,2, 5, 4, 0,18,20.00,30.00,Thursday
148,32.74390382849939
596,2.299701824620638
597,88.25221923542601
2,2, 5, 4, 0,18,30.00,40.00,Thursday
148,32.82245477790205
596,2.3340785277933389
597,89.28538342328469
2,2, 5, 4, 0,18,40.00,50.00,Thursday
148,32.87661362256528
596,2.3581144952111687
597,89.97177123480063
2,2, 5, 4, 0,18,50.00,60.00,Thursday
148,32.846077059839689
596,2.347541124283468
597,89.67347248493698
2,2, 5, 4, 0,19, 0.00,10.00,Thursday
148,31.37208861888974
596,1.4604005196434347
597,48.75447741941027
2,2, 5, 4, 0,19,10.00,20.00,Thursday
148,30.87482245659458
596,1.3137899005027419
597,40.97987866581936
2,2, 5, 4, 0,19,20.00,30.00,Thursday
148,30.650101623317985
596,1.2605322723499544
597,38.25628829431175
2,2, 5, 4, 0,19,30.00,40.00,Thursday
148,30.15910026521852
596,1.1266113835764747
597,31.74233995706669
2,2, 5, 4, 0,19,40.00,50.00,Thursday
148,30.011861025449
596,1.0692963314492963
597,29.12656298891021
2,2, 5, 4, 0,19,50.00,60.00,Thursday
148,29.95919825539131
596,1.0238039762692486
597,27.132607607628203
2,2, 5, 4, 0,20, 0.00,10.00,Thursday
148,29.89411167873467
596,0.9860479223044025
597,25.53589148511962
2,2, 5, 4, 0,20,10.00,20.00,Thursday
148,29.811639556257924
596,0.9436980362407763
597,23.810042687616716
2,2, 5, 4, 0,20,20.00,30.00,Thursday
148,29.728656764395124
596,0.9010455255567578
597,22.143597107163346
2,2, 5, 4, 0,20,30.00,40.00,Thursday
148,29.655336785169536
596,0.863011202964883
597,20.719824952458695
2,2, 5, 4, 0,20,40.00,50.00,Thursday
148,29.588864258270413
596,0.8273851895489043
597,19.440446217135077
2,2, 5, 4, 0,20,50.00,60.00,Thursday
148,29.536443092580265
596,0.8002624378924046
597,18.5020829775645
2,2, 5, 4, 0,21, 0.00,10.00,Thursday
148,29.487834047473304
596,0.7714012820855443
597,17.537760859653504
2,2, 5, 4, 0,21,10.00,20.00,Thursday
148,29.443158188057848
596,0.7462974071648847
597,16.727846744360649
2,2, 5, 4, 0,21,20.00,30.00,Thursday
148,29.392546020064598
596,0.716093281589211
597,15.789196477640275
2,2, 5, 4, 0,21,30.00,40.00,Thursday
148,29.350390733934913
596,0.6942149211520019
597,15.13381743462729
2,2, 5, 4, 0,21,40.00,50.00,Thursday
148,29.311898416567304
596,0.6695611702895693
597,14.420079231055383
2,2, 5, 4, 0,21,50.00,60.00,Thursday
148,29.257168487973784
596,0.6350753572585084
597,13.465855982846123
2,2, 5, 4, 0,22, 0.00,10.00,Thursday
148,29.206924666195279
596,0.6044568233916835
597,12.661869264991822
2,2, 5, 4, 0,22,10.00,20.00,Thursday
148,29.148047518479517
596,0.5777939285891592
597,11.994891288346168
2,2, 5, 4, 0,22,20.00,30.00,Thursday
148,29.062083924882257
596,0.5311535870284261
597,10.902323623385727
2,2, 5, 4, 0,22,30.00,40.00,Thursday
148,29.01331078194845
596,0.5132211071382924
597,10.507332045369595
2,2, 5, 4, 0,22,40.00,50.00,Thursday
148,28.984098159145366
596,0.48938293157123777
597,10.003789014903419
2,2, 5, 4, 0,22,50.00,60.00,Thursday
148,28.944753871749748