Program Version,EnergyPlus, Version 9.5.0-de239b2e5f, YMD=2021.12.09 19:06
1,5,Environment Title[],Latitude[deg],Longitude[deg],Time Zone[],Elevation[m]
2,8,Day of Simulation[],Month[],Day of Month[],DST Indicator[1=yes 0=no],Hour[],StartMinute[],EndMinute[],DayType
3,5,Cumulative Day of Simulation[],Month[],Day of Month[],DST Indicator[1=yes 0=no],DayType  ! When Daily Report Variables Requested
4,2,Cumulative Days of Simulation[],Month[]  ! When Monthly Report Variables Requested
5,1,Cumulative Days of Simulation[] ! When Run Period Report Variables Requested
6,1,Calendar Year of Simulation[] ! When Annual Report Variables Requested
148,1,THERMAL ZONE: JORGE,Zone Mean Air Temperature [C] !TimeStep
596,1,JORGE,Zone Thermal Comfort Fanger Model PMV [] !TimeStep
597,1,JORGE,Zone Thermal Comfort Fanger Model PPD [%] !TimeStep
End of Data Dictionary
1,RUN PERIOD 1,  18.85, -99.14,  -6.00,1280.00
2,1, 5, 3, 0, 1, 0.00,10.00,Wednesday
148,26.05515053427837
596,-1.281839742728609
597,39.337995178268837
2,1, 5, 3, 0, 1,10.00,20.00,Wednesday
148,25.996333886156728
596,-1.3053915481127847
597,40.54608920741915
2,1, 5, 3, 0, 1,20.00,30.00,Wednesday
148,26.033036733982127
596,-1.2955703690870984
597,40.04077593009251
2,1, 5, 3, 0, 1,30.00,40.00,Wednesday
148,26.02834819916048
596,-1.3033316118746426
597,40.43992481741217
2,1, 5, 3, 0, 1,40.00,50.00,Wednesday
148,25.944025125864667
596,-1.3338282490068816
597,42.02089452899705
2,1, 5, 3, 0, 1,50.00,60.00,Wednesday
148,25.77550621738388
596,-1.3897814971182004
597,44.967963469383509
2,1, 5, 3, 0, 2, 0.00,10.00,Wednesday
148,25.638101625431245
596,-1.4390279279513483
597,47.602163077986727
2,1, 5, 3, 0, 2,10.00,20.00,Wednesday
148,25.544567409746237
596,-1.4760062873945748
597,49.59861973119868
2,1, 5, 3, 0, 2,20.00,30.00,Wednesday
148,25.39085613259062
596,-1.531153787564012
597,52.59478752222894
2,1, 5, 3, 0, 2,30.00,40.00,Wednesday
148,25.185746214509828
596,-1.5995311898576932
597,56.319797914971697
2,1, 5, 3, 0, 2,40.00,50.00,Wednesday
148,25.158599567507009
596,-1.6139834766679054
597,57.10589159592508
2,1, 5, 3, 0, 2,50.00,60.00,Wednesday
148,25.261552394587328
596,-1.5919545439934842
597,55.90734986528539
2,1, 5, 3, 0, 3, 0.00,10.00,Wednesday
148,25.31168453722052
596,-1.583955804287593
597,55.47173454848303
2,1, 5, 3, 0, 3,10.00,20.00,Wednesday
148,25.469062845801969
596,-1.5428531939593538
597,53.23205316916631
2,1, 5, 3, 0, 3,20.00,30.00,Wednesday
148,25.60452070274308
596,-1.5058809389717645
597,51.21969584718049
2,1, 5, 3, 0, 3,30.00,40.00,Wednesday
148,25.575590579243806
596,-1.5215498010330928
597,52.071941073953137
2,1, 5, 3, 0, 3,40.00,50.00,Wednesday
148,25.540846121854459
596,-1.535603515514804
597,52.83712656312774
2,1, 5, 3, 0, 3,50.00,60.00,Wednesday
148,25.50280691334499
596,-1.5554075228346434
597,53.91614184324144
2,1, 5, 3, 0, 4, 0.00,10.00,Wednesday
148,25.466510174835958
596,-1.5732478752093427
597,54.888356225030658
2,1, 5, 3, 0, 4,10.00,20.00,Wednesday
148,25.378944376211366
596,-1.603633663410852
597,56.54303481586365
2,1, 5, 3, 0, 4,20.00,30.00,Wednesday
148,25.369815740738284
596,-1.6178716901440396
597,57.3172064107328
2,1, 5, 3, 0, 4,30.00,40.00,Wednesday
148,25.107522687127756
596,-1.7071696453094112
597,62.135166782428388
2,1, 5, 3, 0, 4,40.00,50.00,Wednesday
148,24.742581815077118
596,-1.8374049255855865
597,68.93545268034741
2,1, 5, 3, 0, 4,50.00,60.00,Wednesday
148,24.602666937177987
596,-1.8932404367788594
597,71.72257199826032
2,1, 5, 3, 0, 5, 0.00,10.00,Wednesday
148,24.55400845010478
596,-1.921536483759283
597,73.09784409404291
2,1, 5, 3, 0, 5,10.00,20.00,Wednesday
148,24.76238586448087
596,-1.8671965317110864
597,70.4340504124557
2,1, 5, 3, 0, 5,20.00,30.00,Wednesday
148,24.94975488893776
596,-1.8097416904993993
597,67.52235523177984
2,1, 5, 3, 0, 5,30.00,40.00,Wednesday
148,25.07866713162268
596,-1.7750107404514353
597,65.7219270395149
2,1, 5, 3, 0, 5,40.00,50.00,Wednesday
148,25.01269163983921
596,-1.7939834556853516
597,66.70888252146497
2,1, 5, 3, 0, 5,50.00,60.00,Wednesday
148,24.773665260473775
596,-1.878903318675405
597,71.01583425109023
2,1, 5, 3, 0, 6, 0.00,10.00,Wednesday
148,24.572610107816336
596,-1.9470082049605376
597,74.31234264111579
2,1, 5, 3, 0, 6,10.00,20.00,Wednesday
148,24.395082034230478
596,-2.0226941969687375
597,77.77679877531944
2,1, 5, 3, 0, 6,20.00,30.00,Wednesday
148,24.381971496567858
596,-2.0328920647236128
597,78.22591822045021
2,1, 5, 3, 0, 6,30.00,40.00,Wednesday
148,24.224752973707198
596,-2.0998429691800575
597,81.06178518633628
2,1, 5, 3, 0, 6,40.00,50.00,Wednesday
148,24.0612156573031
596,-2.1573964341212847
597,83.3346861813645
2,1, 5, 3, 0, 6,50.00,60.00,Wednesday
148,23.95745294737262
596,-2.200720640015305
597,84.93973481473911
2,1, 5, 3, 0, 7, 0.00,10.00,Wednesday
148,24.03206362796131
596,-2.182867846301084
597,84.2895754923649
2,1, 5, 3, 0, 7,10.00,20.00,Wednesday
148,24.241706895667077
596,-2.1175984765749096
597,81.77972983998416
2,1, 5, 3, 0, 7,20.00,30.00,Wednesday
148,24.336710748554937
596,-2.0944436530524017
597,80.84056001837164
2,1, 5, 3, 0, 7,30.00,40.00,Wednesday
148,23.986730252173286
596,-2.211301952276288
597,85.31756913767781
2,1, 5, 3, 0, 7,40.00,50.00,Wednesday
148,23.837128761239727
596,-2.2628529679523297
597,87.07740366993028
2,1, 5, 3, 0, 7,50.00,60.00,Wednesday
148,24.268434938427807
596,-2.1191242940084509
597,81.84073736174745
2,1, 5, 3, 0, 8, 0.00,10.00,Wednesday
148,24.495204605511078
596,-2.036734187474629
597,78.39398434293538
2,1, 5, 3, 0, 8,10.00,20.00,Wednesday
148,24.247736260695718
596,-2.1100067530351427
597,81.47455976881467
2,1, 5, 3, 0, 8,20.00,30.00,Wednesday
148,24.314620848157344
596,-2.0764735799954527
597,80.09466434222786
2,1, 5, 3, 0, 8,30.00,40.00,Wednesday
148,24.471290265918268
596,-2.011131559764419
597,77.26231180341429
2,1, 5, 3, 0, 8,40.00,50.00,Wednesday
148,24.692983196508498
596,-1.9197132937741537
597,73.01004191764905
2,1, 5, 3, 0, 8,50.00,60.00,Wednesday
148,24.95924698515973
596,-1.812234273863755
597,67.65047981718365
2,1, 5, 3, 0, 9, 0.00,10.00,Wednesday
148,25.52223480885706
596,-1.6054968709971523
597,56.64439862599019
2,1, 5, 3, 0, 9,10.00,20.00,Wednesday
148,25.849661891662536
596,-1.491599506554214
597,50.44401732241069
2,1, 5, 3, 0, 9,20.00,30.00,Wednesday
148,25.97166527814555
596,-1.4390144271052539
597,47.6014367065269
2,1, 5, 3, 0, 9,30.00,40.00,Wednesday
148,26.016083088213148
596,-1.4069620473785818
597,45.88321414242927
2,1, 5, 3, 0, 9,40.00,50.00,Wednesday
148,26.094387505375189
596,-1.3598193304728735
597,43.38294527495037
2,1, 5, 3, 0, 9,50.00,60.00,Wednesday
148,26.161988049178615
596,-1.319966289645313
597,41.29986315827008
2,1, 5, 3, 0,10, 0.00,10.00,Wednesday
148,28.24321412031276
596,0.2892640087293015
597,6.738288175173281
2,1, 5, 3, 0,10,10.00,20.00,Wednesday
148,28.54651727719309
596,0.39827160938664088
597,8.304811691901165
2,1, 5, 3, 0,10,20.00,30.00,Wednesday
148,28.83091870686009
596,0.467701178419738
597,9.567102835304624
2,1, 5, 3, 0,10,30.00,40.00,Wednesday
148,29.315190601096867
596,0.5934972741977388
597,12.383979350803387
2,1, 5, 3, 0,10,40.00,50.00,Wednesday
148,29.437438936611323
596,0.6437769999305028
597,13.701767483962158
2,1, 5, 3, 0,10,50.00,60.00,Wednesday
148,29.374964263149847
596,0.6438413407247963
597,13.703524066808086
2,1, 5, 3, 0,11, 0.00,10.00,Wednesday
148,29.26294592193552
596,0.6229589229839911
597,13.142836606764476
2,1, 5, 3, 0,11,10.00,20.00,Wednesday
148,29.449721113041666
596,0.6786695964240366
597,14.680710294556875
2,1, 5, 3, 0,11,20.00,30.00,Wednesday
148,29.67593782565148
596,0.745127239845284
597,16.690752075610207
2,1, 5, 3, 0,11,30.00,40.00,Wednesday
148,29.767911479578755
596,0.7793749577490458
597,17.800641386592518
2,1, 5, 3, 0,11,40.00,50.00,Wednesday
148,29.789706072433054
596,0.7948319291680516
597,18.317935881364876
2,1, 5, 3, 0,11,50.00,60.00,Wednesday
148,29.859475276327787
596,0.8199053825656851
597,19.17857471111023
2,1, 5, 3, 0,12, 0.00,10.00,Wednesday
148,29.95291581242199
596,0.8561653676218268
597,20.469882940170394
2,1, 5, 3, 0,12,10.00,20.00,Wednesday
148,30.006355943670135
596,0.8685825203577013
597,20.924665242390249
2,1, 5, 3, 0,12,20.00,30.00,Wednesday
148,30.151864850283343
596,0.9192420195843161
597,22.84560717058976
2,1, 5, 3, 0,12,30.00,40.00,Wednesday
148,30.225457292711675
596,0.9415026847144259
597,23.722495030574068
2,1, 5, 3, 0,12,40.00,50.00,Wednesday
148,30.352803476004874
596,0.9818624195401596
597,25.362221549141908
2,1, 5, 3, 0,12,50.00,60.00,Wednesday
148,30.472868043940968
596,1.0194546939241356
597,26.945943689001355
2,1, 5, 3, 0,13, 0.00,10.00,Wednesday
148,30.63131201389495
596,1.071077123153655
597,29.206129091255407
2,1, 5, 3, 0,13,10.00,20.00,Wednesday
148,30.670911670551694
596,1.0832025196911113
597,29.750857210022475
2,1, 5, 3, 0,13,20.00,30.00,Wednesday
148,30.671130132240955
596,1.0941841297365973
597,30.24861563750683
2,1, 5, 3, 0,13,30.00,40.00,Wednesday
148,30.743067083536244
596,1.1073271136115837
597,30.849773657174155
2,1, 5, 3, 0,13,40.00,50.00,Wednesday
148,30.80414497780282
596,1.1106632057831439
597,31.003296480542546
2,1, 5, 3, 0,13,50.00,60.00,Wednesday
148,30.787884608326455
596,1.1055270571856657
597,30.767092974807015
2,1, 5, 3, 0,14, 0.00,10.00,Wednesday
148,30.7285988404745
596,1.1139498313483845
597,31.15490801396433
2,1, 5, 3, 0,14,10.00,20.00,Wednesday
148,30.83596664206948
596,1.166137759098904
597,33.6095156555742
2,1, 5, 3, 0,14,20.00,30.00,Wednesday
148,30.928987276433906
596,1.1975616603816899
597,35.1283741497749
2,1, 5, 3, 0,14,30.00,40.00,Wednesday
148,30.963040738956545
596,1.214852894720269
597,35.97646137726372
2,1, 5, 3, 0,14,40.00,50.00,Wednesday
148,31.223737732429098
596,1.285651376305806
597,39.5326488127783
2,1, 5, 3, 0,14,50.00,60.00,Wednesday
148,31.555250485259437
596,1.3628446912404269
597,43.54229742988721
2,1, 5, 3, 0,15, 0.00,10.00,Wednesday
148,31.22490619053122
596,1.2630697426632785
597,38.384522591074659
2,1, 5, 3, 0,15,10.00,20.00,Wednesday
148,31.109023513744086
596,1.2544928413685708
597,37.95172928921689
2,1, 5, 3, 0,15,20.00,30.00,Wednesday
148,31.317285521496424
596,1.324156603804199
597,41.51740853487318
2,1, 5, 3, 0,15,30.00,40.00,Wednesday
148,31.39736374464138
596,1.3594323453195066
597,43.36257368451215
2,1, 5, 3, 0,15,40.00,50.00,Wednesday
148,31.486787193949426
596,1.3760667853247102
597,44.24059515245924
2,1, 5, 3, 0,15,50.00,60.00,Wednesday
148,31.558233988267774
596,1.4040341646554538
597,45.7269347099468
2,1, 5, 3, 0,16, 0.00,10.00,Wednesday
148,31.61256145294869
596,1.4331906632671248
597,47.28830112780616
2,1, 5, 3, 0,16,10.00,20.00,Wednesday
148,31.69029546029385
596,1.4473886370688854
597,48.05237056921934
2,1, 5, 3, 0,16,20.00,30.00,Wednesday
148,31.731335558708936
596,1.447185786916567
597,48.04143858529407
2,1, 5, 3, 0,16,30.00,40.00,Wednesday
148,31.616971501278127
596,1.4284963966691418
597,47.03618648671073
2,1, 5, 3, 0,16,40.00,50.00,Wednesday
148,31.796482207650035
596,1.451690926117749
597,48.284329915778247
2,1, 5, 3, 0,16,50.00,60.00,Wednesday
148,31.539342545769445
596,1.368813909056426
597,43.857179311970259
2,1, 5, 3, 0,17, 0.00,10.00,Wednesday
148,31.28875466784268
596,1.3064620671117738
597,40.601298136567937
2,1, 5, 3, 0,17,10.00,20.00,Wednesday
148,31.1021435658227
596,1.2407786768809995
597,37.26361808071188
2,1, 5, 3, 0,17,20.00,30.00,Wednesday
148,30.84272234350334
596,1.148841623986945
597,32.78636414562797
2,1, 5, 3, 0,17,30.00,40.00,Wednesday
148,30.619560331074998
596,1.0745748346720017
597,29.362733050737746
2,1, 5, 3, 0,17,40.00,50.00,Wednesday
148,30.528160356906296
596,1.0385361468755253
597,27.770086596130584
2,1, 5, 3, 0,17,50.00,60.00,Wednesday
148,30.578564478817918
596,1.057794393377904
597,28.615365857109454
2,1, 5, 3, 0,18, 0.00,10.00,Wednesday
148,30.46492525817839
596,1.028894720005273
597,27.351985358798659
2,1, 5, 3, 0,18,10.00,20.00,Wednesday
148,30.38780796264728
596,1.011534414196836
597,26.607831311419959
2,1, 5, 3, 0,18,20.00,30.00,Wednesday
148,30.38458312542283
596,1.0179542827062065
597,26.8817119485454
2,1, 5, 3, 0,18,30.00,40.00,Wednesday
148,30.387252768246
596,1.0294883584739694
597,27.377629694365454
2,1, 5, 3, 0,18,40.00,50.00,Wednesday
148,30.460529618601034
596,1.0560736745671505
597,28.5392956161148
2,1, 5, 3, 0,18,50.00,60.00,Wednesday
148,30.570752503535958
596,1.0897555102988857
597,30.047380671492364
2,1, 5, 3, 0,19, 0.00,10.00,Wednesday
148,29.125927011347586
596,-0.0587330036289416
597,5.071418780225727
2,1, 5, 3, 0,19,10.00,20.00,Wednesday
148,28.791000607583567
596,-0.17104051774383489
597,5.606372899327127
2,1, 5, 3, 0,19,20.00,30.00,Wednesday
148,28.567412779107135
596,-0.2463343578912746
597,6.259425292564217
2,1, 5, 3, 0,19,30.00,40.00,Wednesday
148,28.107918062030188
596,-0.3613020366105668
597,7.716898609121117
2,1, 5, 3, 0,19,40.00,50.00,Wednesday
148,27.86568345711003
596,-0.43152694148106726
597,8.88359722572227
2,1, 5, 3, 0,19,50.00,60.00,Wednesday
148,27.795689549074735
596,-0.4741783976055109
597,9.695435061520783
2,1, 5, 3, 0,20, 0.00,10.00,Wednesday
148,27.77124399637876
596,-0.4931795504175185
597,10.08234270715586
2,1, 5, 3, 0,20,10.00,20.00,Wednesday
148,27.714730618755568
596,-0.5182744797010935
597,10.617232410496428
2,1, 5, 3, 0,20,20.00,30.00,Wednesday
148,27.611376539542748
596,-0.5537610503877511
597,11.420134605983748
2,1, 5, 3, 0,20,30.00,40.00,Wednesday
148,27.49157240677905
596,-0.5876592004837576
597,12.238077401410962
2,1, 5, 3, 0,20,40.00,50.00,Wednesday
148,27.284132471060908
596,-0.6416874328015061
597,13.644817317226327
2,1, 5, 3, 0,20,50.00,60.00,Wednesday
148,27.136322622963655
596,-0.6911076107950316
597,15.042411828547174
2,1, 5, 3, 0,21, 0.00,10.00,Wednesday
148,27.026279742464007
596,-0.735555245799327
597,16.38952224980393
2,1, 5, 3, 0,21,10.00,20.00,Wednesday
148,26.964323743859287
596,-0.7679197887269883
597,17.423830938157793
2,1, 5, 3, 0,21,20.00,30.00,Wednesday
148,26.82732704958498
596,-0.8272632734507827
597,19.436159048134699
2,1, 5, 3, 0,21,30.00,40.00,Wednesday
148,26.589208407025344
596,-0.909317574358235
597,22.461069040859316
2,1, 5, 3, 0,21,40.00,50.00,Wednesday
148,26.652282709989938
596,-0.8999925130605008
597,22.103382792160447
2,1, 5, 3, 0,21,50.00,60.00,Wednesday
148,26.57490074463211
596,-0.9359788933722415
597,23.503059475899975
2,1, 5, 3, 0,22, 0.00,10.00,Wednesday
148,26.59727112606409
596,-0.9333863784556373
597,23.400488754857734
2,1, 5, 3, 0,22,10.00,20.00,Wednesday
148,26.560207672080226
596,-0.9479355478742262
597,23.979568234790123
2,1, 5, 3, 0,22,20.00,30.00,Wednesday
148,26.330659855210408
596,-1.0385408185324044
597,27.77029000968423
2,1, 5, 3, 0,22,30.00,40.00,Wednesday
148,26.221337504196769
596,-1.0843090249182197
597,29.800822215669656
2,1, 5, 3, 0,22,40.00,50.00,Wednesday
148,26.288262917347468
596,-1.0706327975930668
597,29.186266055644084
2,1, 5, 3, 0,22,50.00,60.00,Wednesday
148,26.28882548157953
596,-1.0772376502623685
597,29.48224435485804
2,1, 5, 3, 0,23, 0.00,10.00,Wednesday
148,26.402139701435574
596,-1.057077760695933
597,28.583671763384446
2,1, 5, 3, 0,23,10.00,20.00,Wednesday
148,26.42464581799701
596,-1.0470004913204188
597,28.139947252808257
2,1, 5, 3, 0,23,20.00,30.00,Wednesday
148,26.410990812680916
596,-1.059155934659193
597,28.675632626032909
2,1, 5, 3, 0,23,30.00,40.00,Wednesday
148,26.46900714653649
596,-1.0588884504989982
597,28.663787566184014
2,1, 5, 3, 0,23,40.00,50.00,Wednesday
148,26.490015705344964
596,-1.0580804054420328
597,28.628020283538448
2,1, 5, 3, 0,23,50.00,60.00,Wednesday
148,26.477275765662318
596,-1.0631608391705235
597,28.85328834518843
2,1, 5, 3, 0,24, 0.00,10.00,Wednesday
148,26.52299525819564
596,-1.0548618277712124
597,28.485785575647215
2,1, 5, 3, 0,24,10.00,20.00,Wednesday
148,26.565298316779996
596,-1.0517436246349559
597,28.34834173403634
2,1, 5, 3, 0,24,20.00,30.00,Wednesday
148,26.506497927641758
596,-1.074806114584095
597,29.373103382061815
2,1, 5, 3, 0,24,30.00,40.00,Wednesday
148,26.473522091333128
596,-1.0893819025536249
597,30.030434951695697
2,1, 5, 3, 0,24,40.00,50.00,Wednesday
148,26.392771964447755
596,-1.1198843893275848
597,31.429580804122396
2,1, 5, 3, 0,24,50.00,60.00,Wednesday
148,26.36784418078981
596,-1.1333503174433495
597,32.057141802532587
2,2, 5, 4, 0, 1, 0.00,10.00,Thursday
148,26.5024952842044
596,-1.1046586738546314
597,30.727245281527446
2,2, 5, 4, 0, 1,10.00,20.00,Thursday
148,26.58520362371617
596,-1.0906066049421957
597,30.086001729059306
2,2, 5, 4, 0, 1,20.00,30.00,Thursday
148,26.493936569080373
596,-1.119798414626243
597,31.42559323557161
2,2, 5, 4, 0, 1,30.00,40.00,Thursday
148,26.297219432242458
596,-1.1835408159491517
597,34.447040850036959
2,2, 5, 4, 0, 1,40.00,50.00,Thursday
148,26.25576251082951
596,-1.1987806541845132
597,35.18788193275715
2,2, 5, 4, 0, 1,50.00,60.00,Thursday
148,26.31781588280739
596,-1.1859637138720594
597,34.56436561050016
2,2, 5, 4, 0, 2, 0.00,10.00,Thursday
148,26.422656279786449
596,-1.1613125166649093
597,33.37893719072346
2,2, 5, 4, 0, 2,10.00,20.00,Thursday
148,26.420560874664039
596,-1.1663076692582775
597,33.61764805001904
2,2, 5, 4, 0, 2,20.00,30.00,Thursday
148,26.41918375077169
596,-1.1693914667962562
597,33.76540156564951
2,2, 5, 4, 0, 2,30.00,40.00,Thursday
148,26.36674589718581
596,-1.189871381429986
597,34.753954372519107
2,2, 5, 4, 0, 2,40.00,50.00,Thursday
148,26.29621102220319
596,-1.2147698991525354
597,35.97237045280984
2,2, 5, 4, 0, 2,50.00,60.00,Thursday
148,26.250757532805648
596,-1.2351833741820595
597,36.98428704086368
2,2, 5, 4, 0, 3, 0.00,10.00,Thursday
148,26.27371785875029
596,-1.2379238181012534
597,37.12099281665477
2,2, 5, 4, 0, 3,10.00,20.00,Thursday
148,26.173171733823425
596,-1.2776876733336587
597,39.12634678719885
2,2, 5, 4, 0, 3,20.00,30.00,Thursday
148,26.15822139540878
596,-1.292566650500931
597,39.886663828209
2,2, 5, 4, 0, 3,30.00,40.00,Thursday
148,26.00411888304071
596,-1.3454957766232612
597,42.630747314079787
2,2, 5, 4, 0, 3,40.00,50.00,Thursday
148,25.879534529066757
596,-1.3881214314360518
597,44.8797622532319
2,2, 5, 4, 0, 3,50.00,60.00,Thursday
148,25.905451847326803
596,-1.3942523837876622
597,45.20571729123758
2,2, 5, 4, 0, 4, 0.00,10.00,Thursday
148,25.864323287879335
596,-1.4178645920545637
597,46.4661898655525
2,2, 5, 4, 0, 4,10.00,20.00,Thursday
148,25.778085924145299
596,-1.4518491117753323
597,48.2928621667533
2,2, 5, 4, 0, 4,20.00,30.00,Thursday
148,25.693768862806239
596,-1.4862132091567948
597,50.15179830540369
2,2, 5, 4, 0, 4,30.00,40.00,Thursday
148,25.590047220741018
596,-1.5258302048314819
597,52.30493114045054
2,2, 5, 4, 0, 4,40.00,50.00,Thursday
148,25.525413774653523
596,-1.5506316357941963
597,53.65588290163986
2,2, 5, 4, 0, 4,50.00,60.00,Thursday
148,25.515081891517739
596,-1.5559247313917278
597,53.944327666751068
2,2, 5, 4, 0, 5, 0.00,10.00,Thursday
148,25.46762498761133
596,-1.5825542986511779
597,55.39539144132562
2,2, 5, 4, 0, 5,10.00,20.00,Thursday
148,25.3852326563877
596,-1.6157552169166354
597,57.2021914732388
2,2, 5, 4, 0, 5,20.00,30.00,Thursday
148,25.246589064318007
596,-1.6583203269060103
597,59.5093662058164
2,2, 5, 4, 0, 5,30.00,40.00,Thursday
148,25.197990601347877
596,-1.6790448037487234
597,60.626855046268698
2,2, 5, 4, 0, 5,40.00,50.00,Thursday
148,25.201286818988366
596,-1.6911160094167322
597,61.27548788514875
2,2, 5, 4, 0, 5,50.00,60.00,Thursday
148,25.158677063567685
596,-1.7142882574002104
597,62.515198878825938
2,2, 5, 4, 0, 6, 0.00,10.00,Thursday
148,25.199558949313287
596,-1.7044331990328199
597,61.988882030203829
2,2, 5, 4, 0, 6,10.00,20.00,Thursday
148,24.913202173779223
596,-1.8056955653095797
597,67.31405155372484
2,2, 5, 4, 0, 6,20.00,30.00,Thursday
148,24.833569179646206
596,-1.8390963285933646
597,69.02120092606136
2,2, 5, 4, 0, 6,30.00,40.00,Thursday
148,24.52699499167162
596,-1.9488802431906188
597,74.40068509275715
2,2, 5, 4, 0, 6,40.00,50.00,Thursday
148,24.312624020858004
596,-2.0263983399775689
597,77.94043821131267
2,2, 5, 4, 0, 6,50.00,60.00,Thursday
148,24.38002451272244
596,-2.005382289492045
597,77.00444260405452
2,2, 5, 4, 0, 7, 0.00,10.00,Thursday
148,24.64918916116065
596,-1.9254825087117876
597,73.287486603873
2,2, 5, 4, 0, 7,10.00,20.00,Thursday
148,24.913970508439328
596,-1.8431701260499463
597,69.22740766148893
2,2, 5, 4, 0, 7,20.00,30.00,Thursday
148,24.70740050541628
596,-1.9072228784349697
597,72.40548552733414
2,2, 5, 4, 0, 7,30.00,40.00,Thursday
148,24.854711709904824
596,-1.869793589094069
597,70.56347161937915
2,2, 5, 4, 0, 7,40.00,50.00,Thursday
148,25.005588000588188
596,-1.817004561434127
597,67.89525400533171
2,2, 5, 4, 0, 7,50.00,60.00,Thursday
148,25.089500428318737
596,-1.7867715233784077
597,66.33465984495041
2,2, 5, 4, 0, 8, 0.00,10.00,Thursday
148,25.11251725259935
596,-1.7751901065509593
597,65.73129435031606
2,2, 5, 4, 0, 8,10.00,20.00,Thursday
148,25.056164917865237
596,-1.7840193514187135
597,66.19154345800263
2,2, 5, 4, 0, 8,20.00,30.00,Thursday
148,24.96873064803946
596,-1.8026505343546742
597,67.15702575952922
2,2, 5, 4, 0, 8,30.00,40.00,Thursday
148,25.024760811363245
596,-1.7704686604153406
597,65.48449343457253
2,2, 5, 4, 0, 8,40.00,50.00,Thursday
148,25.18468010990388
596,-1.7002221536320446
597,61.76356065935037
2,2, 5, 4, 0, 8,50.00,60.00,Thursday
148,25.462041114876926
596,-1.5985870712391555
597,56.26841419979134
2,2, 5, 4, 0, 9, 0.00,10.00,Thursday
148,25.717299697402038
596,-1.5073471996123876
597,51.2993986419712
2,2, 5, 4, 0, 9,10.00,20.00,Thursday
148,25.876143347527493
596,-1.4580191945928343
597,48.6258594912656
2,2, 5, 4, 0, 9,20.00,30.00,Thursday
148,26.03812690977572
596,-1.381439650967112
597,44.525189165285407
2,2, 5, 4, 0, 9,30.00,40.00,Thursday
148,26.203867432376133
596,-1.3120021931422923
597,40.887412872121249
2,2, 5, 4, 0, 9,40.00,50.00,Thursday
148,26.35720611485749
596,-1.242470959710031
597,37.34826397809084
2,2, 5, 4, 0, 9,50.00,60.00,Thursday
148,26.431265668187288
596,-1.219035413432578
597,36.18287016487031
2,2, 5, 4, 0,10, 0.00,10.00,Thursday
148,28.286487035842737
596,0.2871141498631201
597,6.71245965961775
2,2, 5, 4, 0,10,10.00,20.00,Thursday
148,28.455497982334465
596,0.3558044114822115
597,7.634449719814469
2,2, 5, 4, 0,10,20.00,30.00,Thursday
148,28.74450348496553
596,0.43329253578792217
597,8.915651958908044
2,2, 5, 4, 0,10,30.00,40.00,Thursday
148,28.999315469117968
596,0.493517993352647
597,10.089375455343799
2,2, 5, 4, 0,10,40.00,50.00,Thursday
148,29.16633349584002
596,0.5477983045446303
597,11.281410902239856
2,2, 5, 4, 0,10,50.00,60.00,Thursday
148,29.33740669776637
596,0.6042418715397602
597,12.656368834851591
2,2, 5, 4, 0,11, 0.00,10.00,Thursday
148,29.46024716341041
596,0.6488810983000203
597,13.841673334879019
2,2, 5, 4, 0,11,10.00,20.00,Thursday
148,29.52392699431905
596,0.6782460490394459
597,14.668511195811889
2,2, 5, 4, 0,11,20.00,30.00,Thursday
148,29.60302740353054
596,0.7074206248814418
597,15.526931715876174
2,2, 5, 4, 0,11,30.00,40.00,Thursday
148,29.73650034219402
596,0.7555757756152287
597,17.024050567039568
2,2, 5, 4, 0,11,40.00,50.00,Thursday
148,29.825149329535799
596,0.7813988660749801
597,17.867797431084229
2,2, 5, 4, 0,11,50.00,60.00,Thursday
148,29.957336701524626
596,0.8318647035499944
597,19.59840000856464
2,2, 5, 4, 0,12, 0.00,10.00,Thursday
148,30.099756821471027
596,0.8867150981225481
597,21.600195074285425
2,2, 5, 4, 0,12,10.00,20.00,Thursday
148,30.272519477304173
596,0.9354234774744918
597,23.48106237995748
2,2, 5, 4, 0,12,20.00,30.00,Thursday
148,30.410560317625
596,0.9869686555335933
597,25.57418594199092
2,2, 5, 4, 0,12,30.00,40.00,Thursday
148,30.49527631716321
596,1.0119295279923014
597,26.62464283309596
2,2, 5, 4, 0,12,40.00,50.00,Thursday
148,30.575005203395848
596,1.0375977830479855
597,27.729244492157507
2,2, 5, 4, 0,12,50.00,60.00,Thursday
148,30.586155315608246
596,1.0429732857679708
597,27.963647877176883
2,2, 5, 4, 0,13, 0.00,10.00,Thursday
148,30.665006777931035
596,1.0744895103336346
597,29.3589076779772
2,2, 5, 4, 0,13,10.00,20.00,Thursday
148,30.84872268156631
596,1.1413663316928263
597,32.433519081667018
2,2, 5, 4, 0,13,20.00,30.00,Thursday
148,30.9456493561172
596,1.1684327371215815
597,33.719434871943537
2,2, 5, 4, 0,13,30.00,40.00,Thursday
148,31.00288948943237
596,1.1876908292077604
597,34.64810461417822
2,2, 5, 4, 0,13,40.00,50.00,Thursday
148,31.058811397478359
596,1.2032875457946189
597,35.40826784962505
2,2, 5, 4, 0,13,50.00,60.00,Thursday
148,31.15816284052168
596,1.2345565028408923
597,36.95304400222503
2,2, 5, 4, 0,14, 0.00,10.00,Thursday
148,31.189831529636849
596,1.2549811923561776
597,37.976321732500888
2,2, 5, 4, 0,14,10.00,20.00,Thursday
148,31.244037212692147
596,1.2641136481324778
597,38.43732429618605
2,2, 5, 4, 0,14,20.00,30.00,Thursday
148,31.249033160611014
596,1.2615995656404123
597,38.31020571432098
2,2, 5, 4, 0,14,30.00,40.00,Thursday
148,31.209917943091936
596,1.2539504650830989
597,37.92442335264981
2,2, 5, 4, 0,14,40.00,50.00,Thursday
148,31.25070470571135
596,1.251434836489882
597,37.797872290858908
2,2, 5, 4, 0,14,50.00,60.00,Thursday
148,31.32140645703383
596,1.2997022794075668
597,40.25310597488323
2,2, 5, 4, 0,15, 0.00,10.00,Thursday
148,31.496329847682057
596,1.3439547053817705
597,42.55004609343332
2,2, 5, 4, 0,15,10.00,20.00,Thursday
148,31.414509630451268
596,1.3250653310237369
597,41.56463411259085
2,2, 5, 4, 0,15,20.00,30.00,Thursday
148,31.45656287851576
596,1.3212829296506837
597,41.368178895536619
2,2, 5, 4, 0,15,30.00,40.00,Thursday
148,31.407130983660978
596,1.2969378366612972
597,40.11100457866316
2,2, 5, 4, 0,15,40.00,50.00,Thursday
148,31.350475579919619
596,1.291136284878613
597,39.813348334059849
2,2, 5, 4, 0,15,50.00,60.00,Thursday
148,31.465914347386148
596,1.324661605151803
597,41.54365081805026
2,2, 5, 4, 0,16, 0.00,10.00,Thursday
148,31.660430105229655
596,1.3843359582829982
597,44.67879671959835
2,2, 5, 4, 0,16,10.00,20.00,Thursday
148,31.797927300924294
596,1.4334597480969767
597,47.302760784831438
2,2, 5, 4, 0,16,20.00,30.00,Thursday
148,31.846621292961104
596,1.448869461611002
597,48.13218810657121
2,2, 5, 4, 0,16,30.00,40.00,Thursday
148,31.902490321353196
596,1.4628666705853797
597,48.8877328122863
2,2, 5, 4, 0,16,40.00,50.00,Thursday
148,31.921817108441315
596,1.4515253616719444
597,48.27539993780879
2,2, 5, 4, 0,16,50.00,60.00,Thursday
148,31.865512858106503
596,1.4256231474683275
597,46.88200477608695
2,2, 5, 4, 0,17, 0.00,10.00,Thursday
148,31.757446434585647
596,1.419055021749776
597,46.52994007038176
2,2, 5, 4, 0,17,10.00,20.00,Thursday
148,31.88248498606363
596,1.448336005207027
597,48.10343177308201
2,2, 5, 4, 0,17,20.00,30.00,Thursday
148,31.8063646752987
596,1.4227555007571576
597,46.72822587164121
2,2, 5, 4, 0,17,30.00,40.00,Thursday
148,31.90016578936263
596,1.450207675623103
597,48.204338426286877
2,2, 5, 4, 0,17,40.00,50.00,Thursday
148,31.761499974232796
596,1.4106613732817964
597,46.080841686082859
2,2, 5, 4, 0,17,50.00,60.00,Thursday
148,31.85971538030377
596,1.4112585170383776
597,46.11276032000337
2,2, 5, 4, 0,18, 0.00,10.00,Thursday
148,31.646064305002676
596,1.3594443458305113
597,43.36320537267273
2,2, 5, 4, 0,18,10.00,20.00,Thursday
148,31.67650341467099
596,1.3644357272921109
597,43.626165461947227
2,2, 5, 4, 0,18,20.00,30.00,Thursday
148,31.657735606214876
596,1.3684873761728989
597,43.839938457330429
2,2, 5, 4, 0,18,30.00,40.00,Thursday
148,31.73922236030604
596,1.392825272546404
597,45.12979298167222
2,2, 5, 4, 0,18,40.00,50.00,Thursday
148,31.762294557959839
596,1.402429939315821
597,45.64135881585436
2,2, 5, 4, 0,18,50.00,60.00,Thursday
148,31.68035078381691
596,1.372624633896555
597,44.0585189427196
2,2, 5, 4, 0,19, 0.00,10.00,Thursday
148,30.17854372626686
596,0.3010131438151073
597,6.8828917906241149
2,2, 5, 4, 0,19,10.00,20.00,Thursday
148,29.719134208814315
596,0.1587199520191336
597,5.522069235809937
2,2, 5, 4, 0,19,20.00,30.00,Thursday
148,29.524126022483548
596,0.1074514423807204
597,5.239127253555409
2,2, 5, 4, 0,19,30.00,40.00,Thursday
148,29.249783996009879
596,0.027744657816467574
597,5.01593509269442
2,2, 5, 4, 0,19,40.00,50.00,Thursday
148,29.002157896880417
596,-0.05165635960291896
597,5.0552434015541369
2,2, 5, 4, 0,19,50.00,60.00,Thursday
148,28.893556321005176
596,-0.11018162070498006
597,5.251439972316319
2,2, 5, 4, 0,20, 0.00,10.00,Thursday
148,28.846157815906886
596,-0.1432737253987795
597,5.425313928726908
2,2, 5, 4, 0,20,10.00,20.00,Thursday
148,28.73063572367399
596,-0.19053659245203106
597,5.75271537401747
2,2, 5, 4, 0,20,20.00,30.00,Thursday
148,28.58603659944188
596,-0.24327755224867737
597,6.228285613003877
2,2, 5, 4, 0,20,30.00,40.00,Thursday
148,28.478480670400754
596,-0.28282127798938758
597,6.661468591014696
2,2, 5, 4, 0,20,40.00,50.00,Thursday
148,28.405129053535377
596,-0.31276117790860566
597,7.033317772106713
2,2, 5, 4, 0,20,50.00,60.00,Thursday
148,28.308843227657403
596,-0.34165881080241619
597,7.428216564666997
2,2, 5, 4, 0,21, 0.00,10.00,Thursday
148,28.23301156130703
596,-0.36800541054790356
597,7.819172032646449
2,2, 5, 4, 0,21,10.00,20.00,Thursday
148,28.217585871389145
596,-0.377254834171828
597,7.963435449675046
2,2, 5, 4, 0,21,20.00,30.00,Thursday
148,28.206691270325075
596,-0.3894748346531462
597,8.159628962835996
2,2, 5, 4, 0,21,30.00,40.00,Thursday
148,28.172400748034148
596,-0.39857971105134307
597,8.309956604637762
2,2, 5, 4, 0,21,40.00,50.00,Thursday
148,28.160824133443979
596,-0.40615930829671656
597,8.43780545080341
2,2, 5, 4, 0,21,50.00,60.00,Thursday
148,28.1064836730771
596,-0.4279788563946288
597,8.819585691650147
2,2, 5, 4, 0,22, 0.00,10.00,Thursday
148,28.035427565421075
596,-0.4551904308108884
597,9.324346291892127
2,2, 5, 4, 0,22,10.00,20.00,Thursday
148,27.971927497667556
596,-0.47372727207268047
597,9.686438381669007
2,2, 5, 4, 0,22,20.00,30.00,Thursday
148,27.86088013832474
596,-0.5149229306695727
597,10.544219802845362
2,2, 5, 4, 0,22,30.00,40.00,Thursday
148,27.83246186826498
596,-0.5152034669539205
597,10.550312575675904
2,2, 5, 4, 0,22,40.00,50.00,Thursday
148,27.849622359951984
596,-0.5190249148526395