Program Version,EnergyPlus, Version 9.5.0-de239b2e5f, YMD=2021.12.09 19:06
1,5,Environment Title[],Latitude[deg],Longitude[deg],Time Zone[],Elevation[m]
2,8,Day of Simulation[],Month[],Day of Month[],DST Indicator[1=yes 0=no],Hour[],StartMinute[],EndMinute[],DayType
3,5,Cumulative Day of Simulation[],Month[],Day of Month[],DST Indicator[1=yes 0=no],DayType  ! When Daily Report Variables Requested
4,2,Cumulative Days of Simulation[],Month[]  ! When Monthly Report Variables Requested
5,1,Cumulative Days of Simulation[] ! When Run Period Report Variables Requested
6,1,Calendar Year of Simulation[] ! When Annual Report Variables Requested
148,1,THERMAL ZONE: JORGE,Zone Mean Air Temperature [C] !TimeStep
596,1,JORGE,Zone Thermal Comfort Fanger Model PMV [] !TimeStep
597,1,JORGE,Zone Thermal Comfort Fanger Model PPD [%] !TimeStep
End of Data Dictionary
1,RUN PERIOD 1,  18.85, -99.14,  -6.00,1280.00
2,1, 5, 3, 0, 1, 0.00,10.00,Wednesday
148,25.22634007442079
596,-1.5670478220232372
597,54.55049912273238
2,1, 5, 3, 0, 1,10.00,20.00,Wednesday
148,25.17680796670387
596,-1.5911431760956903
597,55.86317045434892
2,1, 5, 3, 0, 1,20.00,30.00,Wednesday
148,25.349935311171128
596,-1.538087451666415
597,52.97242674750135
2,1, 5, 3, 0, 1,30.00,40.00,Wednesday
148,25.346996376219044
596,-1.5449416440740696
597,53.34583983738308
2,1, 5, 3, 0, 1,40.00,50.00,Wednesday
148,25.16661762527253
596,-1.6066440653934225
597,56.70680172661432
2,1, 5, 3, 0, 1,50.00,60.00,Wednesday
148,24.866921670017214
596,-1.7055444802010834
597,62.04830179544542
2,1, 5, 3, 0, 2, 0.00,10.00,Wednesday
148,24.678076374632068
596,-1.7761706484311364
597,65.78249062322195
2,1, 5, 3, 0, 2,10.00,20.00,Wednesday
148,24.52771965860064
596,-1.8324573944979433
597,68.68418706352402
2,1, 5, 3, 0, 2,20.00,30.00,Wednesday
148,24.29410326735387
596,-1.9159130475593478
597,72.82666211326094
2,1, 5, 3, 0, 2,30.00,40.00,Wednesday
148,24.071576703257379
596,-1.9958944896440092
597,76.57595439081075
2,1, 5, 3, 0, 2,40.00,50.00,Wednesday
148,24.108609354464794
596,-1.9926576305199418
597,76.42894335947224
2,1, 5, 3, 0, 2,50.00,60.00,Wednesday
148,24.253786332562688
596,-1.9561649458840936
597,74.7432290096982
2,1, 5, 3, 0, 3, 0.00,10.00,Wednesday
148,24.327424583949936
596,-1.9395380072845559
597,73.95855359761677
2,1, 5, 3, 0, 3,10.00,20.00,Wednesday
148,24.624597555539148
596,-1.8564783624253199
597,69.8978165970232
2,1, 5, 3, 0, 3,20.00,30.00,Wednesday
148,24.902930357340194
596,-1.7744359267257537
597,65.69190307293059
2,1, 5, 3, 0, 3,30.00,40.00,Wednesday
148,24.81081412755897
596,-1.8079132763230157
597,67.42827362886666
2,1, 5, 3, 0, 3,40.00,50.00,Wednesday
148,24.752126595283824
596,-1.8297173160181005
597,68.5447481969692
2,1, 5, 3, 0, 3,50.00,60.00,Wednesday
148,24.7174452841424
596,-1.8487546418539017
597,69.5093380279427
2,1, 5, 3, 0, 4, 0.00,10.00,Wednesday
148,24.64282469526166
596,-1.8777897650533567
597,70.96067420517386
2,1, 5, 3, 0, 4,10.00,20.00,Wednesday
148,24.46616071379742
596,-1.9355917351714354
597,73.77084810692632
2,1, 5, 3, 0, 4,20.00,30.00,Wednesday
148,24.473153644241113
596,-1.9473156264863219
597,74.32685879993
2,1, 5, 3, 0, 4,30.00,40.00,Wednesday
148,23.998805060458279
596,-2.1040340465676654
597,81.23257625341228
2,1, 5, 3, 0, 4,40.00,50.00,Wednesday
148,23.452516633559463
596,-2.3010191475681727
597,88.29292838898975
2,1, 5, 3, 0, 4,50.00,60.00,Wednesday
148,23.295921629661007
596,-2.3669679550311919
597,90.21715686900885
2,1, 5, 3, 0, 5, 0.00,10.00,Wednesday
148,23.279228597221264
596,-2.383409546772945
597,90.66227418345417
2,1, 5, 3, 0, 5,10.00,20.00,Wednesday
148,23.64997300588842
596,-2.27805829941049
597,87.57061604656383
2,1, 5, 3, 0, 5,20.00,30.00,Wednesday
148,23.940810376072599
596,-2.183957779778797
597,84.32972249748276
2,1, 5, 3, 0, 5,30.00,40.00,Wednesday
148,24.19583194075242
596,-2.1089679877979736
597,81.43259380543398
2,1, 5, 3, 0, 5,40.00,50.00,Wednesday
148,24.12968664904345
596,-2.1247808744819216
597,82.06594815116353
2,1, 5, 3, 0, 5,50.00,60.00,Wednesday
148,23.652001650077858
596,-2.284664514184586
597,87.7812091704016
2,1, 5, 3, 0, 6, 0.00,10.00,Wednesday
148,23.31612396436905
596,-2.398934133798877
597,91.06999096638147
2,1, 5, 3, 0, 6,10.00,20.00,Wednesday
148,23.13863489199104
596,-2.4824747594374076
597,93.05789499843948
2,1, 5, 3, 0, 6,20.00,30.00,Wednesday
148,23.143066499416233
596,-2.489198759431792
597,93.20309151377505
2,1, 5, 3, 0, 6,30.00,40.00,Wednesday
148,22.777532073190398
596,-2.6220691756320697
597,95.64715154749564
2,1, 5, 3, 0, 6,40.00,50.00,Wednesday
148,22.545434841650278
596,-2.7077049235239309
597,96.82928259944984
2,1, 5, 3, 0, 6,50.00,60.00,Wednesday
148,22.4443797836451
596,-2.7519134460699754
597,97.33356168094056
2,1, 5, 3, 0, 7, 0.00,10.00,Wednesday
148,22.62152067237052
596,-2.7019150791729369
597,96.75813411573975
2,1, 5, 3, 0, 7,10.00,20.00,Wednesday
148,22.93795314131521
596,-2.6002783394022788
597,95.29953832327395
2,1, 5, 3, 0, 7,20.00,30.00,Wednesday
148,23.240096609178118
596,-2.5075223808530859
597,93.58786095119489
2,1, 5, 3, 0, 7,30.00,40.00,Wednesday
148,22.484579395859627
596,-2.754638743999456
597,97.36246496422513
2,1, 5, 3, 0, 7,40.00,50.00,Wednesday
148,22.265559496284184
596,-2.837449510041203
597,98.12968741579508
2,1, 5, 3, 0, 7,50.00,60.00,Wednesday
148,23.17980240551706
596,-2.5401678560506899
597,94.23448481470128
2,1, 5, 3, 0, 8, 0.00,10.00,Wednesday
148,23.40321641202697
596,-2.4446020077749925
597,92.19928840777752
2,1, 5, 3, 0, 8,10.00,20.00,Wednesday
148,22.890282291092605
596,-2.6047541581917219
597,95.37256426866259
2,1, 5, 3, 0, 8,20.00,30.00,Wednesday
148,22.9652352836725
596,-2.572621820060023
597,94.82925466524194
2,1, 5, 3, 0, 8,30.00,40.00,Wednesday
148,23.249516616961715
596,-2.464808417682703
597,92.66605649415095
2,1, 5, 3, 0, 8,40.00,50.00,Wednesday
148,23.663964942238118
596,-2.3095007194440546
597,88.55289984441073
2,1, 5, 3, 0, 8,50.00,60.00,Wednesday
148,24.228378677621728
596,-2.106789402289803
597,81.34441570208333
2,1, 5, 3, 0, 9, 0.00,10.00,Wednesday
148,24.7851884932588
596,-1.8932098715140864
597,71.72107222058749
2,1, 5, 3, 0, 9,10.00,20.00,Wednesday
148,25.042288521306348
596,-1.7949681731551242
597,66.75988686402576
2,1, 5, 3, 0, 9,20.00,30.00,Wednesday
148,25.324313273242475
596,-1.6939009088043103
597,61.4248705828627
2,1, 5, 3, 0, 9,30.00,40.00,Wednesday
148,25.574731676548909
596,-1.5989765360486486
597,56.28961125238102
2,1, 5, 3, 0, 9,40.00,50.00,Wednesday
148,25.766474686502769
596,-1.5138739499282037
597,51.65430684796308
2,1, 5, 3, 0, 9,50.00,60.00,Wednesday
148,25.831642060630406
596,-1.4718798759444523
597,49.375212732826678
2,1, 5, 3, 0,10, 0.00,10.00,Wednesday
148,27.797326841192615
596,0.1668089665489621
597,5.576704855116674
2,1, 5, 3, 0,10,10.00,20.00,Wednesday
148,28.004702126573354
596,0.25160988394676078
597,6.314090693332574
2,1, 5, 3, 0,10,20.00,30.00,Wednesday
148,28.338187612748354
596,0.3310494603759647
597,7.279119737008656
2,1, 5, 3, 0,10,30.00,40.00,Wednesday
148,28.822291513938873
596,0.45441382285807999
597,9.309499257220523
2,1, 5, 3, 0,10,40.00,50.00,Wednesday
148,28.861396995935924
596,0.48345023049348859
597,9.882284790282299
2,1, 5, 3, 0,10,50.00,60.00,Wednesday
148,28.72790086585443
596,0.46032340745244945
597,9.423130354784036
2,1, 5, 3, 0,11, 0.00,10.00,Wednesday
148,28.43599987469561
596,0.39316499872534957
597,8.22012893998054
2,1, 5, 3, 0,11,10.00,20.00,Wednesday
148,28.802208273132039
596,0.4779879484097851
597,9.771757897601873
2,1, 5, 3, 0,11,20.00,30.00,Wednesday
148,29.257816562732445
596,0.5957561713738645
597,12.440829364629721
2,1, 5, 3, 0,11,30.00,40.00,Wednesday
148,29.325843335513026
596,0.6263764681403121
597,13.233302092184119
2,1, 5, 3, 0,11,40.00,50.00,Wednesday
148,29.2687299786736
596,0.6195651424297841
597,13.053501725921308
2,1, 5, 3, 0,11,50.00,60.00,Wednesday
148,29.40278678851974
596,0.6570888917415247
597,14.06902127100146
2,1, 5, 3, 0,12, 0.00,10.00,Wednesday
148,29.488584186827585
596,0.6919995411635935
597,15.068606441802686
2,1, 5, 3, 0,12,10.00,20.00,Wednesday
148,29.568847943954219
596,0.7063078887110496
597,15.493516845387333
2,1, 5, 3, 0,12,20.00,30.00,Wednesday
148,29.772620423050044
596,0.7685037963119206
597,17.442906168705109
2,1, 5, 3, 0,12,30.00,40.00,Wednesday
148,29.871582134034186
596,0.7929634863507369
597,18.254866357531229
2,1, 5, 3, 0,12,40.00,50.00,Wednesday
148,30.068129879593127
596,0.8445031028784545
597,20.04857278838574
2,1, 5, 3, 0,12,50.00,60.00,Wednesday
148,30.27209188769117
596,0.8991937414429051
597,22.072907929560246
2,1, 5, 3, 0,13, 0.00,10.00,Wednesday
148,30.561495600336689
596,0.9820907675150047
597,25.371679064603229
2,1, 5, 3, 0,13,10.00,20.00,Wednesday
148,30.534850109058885
596,0.9843029148560033
597,25.463403691191389
2,1, 5, 3, 0,13,20.00,30.00,Wednesday
148,30.45590531945912
596,0.9794097410736038
597,25.26076533103064
2,1, 5, 3, 0,13,30.00,40.00,Wednesday
148,30.632434667086476
596,1.0099621554213032
597,26.54099205180097
2,1, 5, 3, 0,13,40.00,50.00,Wednesday
148,30.705540246578545
596,1.0136484790015257
597,26.697849876754078
2,1, 5, 3, 0,13,50.00,60.00,Wednesday
148,30.65076608894823
596,1.0011594435779685
597,26.168494970208884
2,1, 5, 3, 0,14, 0.00,10.00,Wednesday
148,30.633590672766773
596,1.0178613797546715
597,26.877737587533035
2,1, 5, 3, 0,14,10.00,20.00,Wednesday
148,30.8623791565267
596,1.0969364608945336
597,30.374019809311535
2,1, 5, 3, 0,14,20.00,30.00,Wednesday
148,30.89602201364519
596,1.1177697347771632
597,31.33157270126081
2,1, 5, 3, 0,14,30.00,40.00,Wednesday
148,30.858233282969896
596,1.1164233099416568
597,31.269247173511176
2,1, 5, 3, 0,14,40.00,50.00,Wednesday
148,31.46356125717113
596,1.2588999421149454
597,38.17388165978173
2,1, 5, 3, 0,14,50.00,60.00,Wednesday
148,32.01494080364057
596,1.3957874690918842
597,45.28742020927677
2,1, 5, 3, 0,15, 0.00,10.00,Wednesday
148,31.302387291710216
596,1.2169089007087453
597,36.07786513539308
2,1, 5, 3, 0,15,10.00,20.00,Wednesday
148,31.05371905098786
596,1.1738552640496388
597,33.97978951944637
2,1, 5, 3, 0,15,20.00,30.00,Wednesday
148,31.51600931504992
596,1.2939355503801369
597,39.95687263581993
2,1, 5, 3, 0,15,30.00,40.00,Wednesday
148,31.481001216419949
596,1.3079490977476616
597,40.67802904258756
2,1, 5, 3, 0,15,40.00,50.00,Wednesday
148,31.628733857944839
596,1.334117654619288
597,42.03598934968469
2,1, 5, 3, 0,15,50.00,60.00,Wednesday
148,31.724563017298708
596,1.3683875867482243
597,43.83466996547438
2,1, 5, 3, 0,16, 0.00,10.00,Wednesday
148,31.734540619950534
596,1.3882443719046776
597,44.88629275671738
2,1, 5, 3, 0,16,10.00,20.00,Wednesday
148,31.86555317851223
596,1.4133233339092473
597,46.223166645155028
2,1, 5, 3, 0,16,20.00,30.00,Wednesday
148,31.928113213732617
596,1.41741697618496
597,46.442223809003397
2,1, 5, 3, 0,16,30.00,40.00,Wednesday
148,31.654150125010049
596,1.3642837919804827
597,43.618154603838927
2,1, 5, 3, 0,16,40.00,50.00,Wednesday
148,32.14965947928067
596,1.441860416835492
597,47.754601433107307
2,1, 5, 3, 0,16,50.00,60.00,Wednesday
148,31.67013589697239
596,1.3171613736324746
597,41.154447086499697
2,1, 5, 3, 0,17, 0.00,10.00,Wednesday
148,31.424783967182849
596,1.2590488387362276
597,38.181395787202969
2,1, 5, 3, 0,17,10.00,20.00,Wednesday
148,31.04286578376397
596,1.1517825351222555
597,32.925665857181488
2,1, 5, 3, 0,17,20.00,30.00,Wednesday
148,30.46026705542022
596,0.9812167981660637
597,25.33549263463499
2,1, 5, 3, 0,17,30.00,40.00,Wednesday
148,30.40401150514208
596,0.9534620819994885
597,24.201727022771139
2,1, 5, 3, 0,17,40.00,50.00,Wednesday
148,30.302977310018158
596,0.9265902327787572
597,23.13287734691994
2,1, 5, 3, 0,17,50.00,60.00,Wednesday
148,30.207791045473106
596,0.9130302191889866
597,22.604456306156565
2,1, 5, 3, 0,18, 0.00,10.00,Wednesday
148,29.827324657767926
596,0.8400435514025122
597,19.888964251959594
2,1, 5, 3, 0,18,10.00,20.00,Wednesday
148,29.769844236667944
596,0.8324296273394473
597,19.618379693255748
2,1, 5, 3, 0,18,20.00,30.00,Wednesday
148,29.854607344870425
596,0.860672821778404
597,20.634232184076013
2,1, 5, 3, 0,18,30.00,40.00,Wednesday
148,29.81076959009692
596,0.8610269592781515
597,20.64718028848695
2,1, 5, 3, 0,18,40.00,50.00,Wednesday
148,29.95156018791111
596,0.897011939846746
597,21.98979969045385
2,1, 5, 3, 0,18,50.00,60.00,Wednesday
148,30.18700604950165
596,0.9569102288838268
597,24.34094636184534
2,1, 5, 3, 0,19, 0.00,10.00,Wednesday
148,28.739537632249065
596,-0.2135651600927262
597,5.946035879905622
2,1, 5, 3, 0,19,10.00,20.00,Wednesday
148,28.54445917567745
596,-0.29068368535711339
597,6.755451227199927
2,1, 5, 3, 0,19,20.00,30.00,Wednesday
148,28.320451570747605
596,-0.36383807783942248
597,7.755365875804756
2,1, 5, 3, 0,19,30.00,40.00,Wednesday
148,28.103187551227756
596,-0.4176308135142275
597,8.635980001693355
2,1, 5, 3, 0,19,40.00,50.00,Wednesday
148,27.900134694313548
596,-0.47146491302606388
597,9.641453069438953
2,1, 5, 3, 0,19,50.00,60.00,Wednesday
148,27.75571698754274
596,-0.5255848011768775
597,10.77817217978398
2,1, 5, 3, 0,20, 0.00,10.00,Wednesday
148,27.667642829448505
596,-0.5563526355904062
597,11.480908557643787
2,1, 5, 3, 0,20,10.00,20.00,Wednesday
148,27.57007101046778
596,-0.5874292673769731
597,12.232361313826317
2,1, 5, 3, 0,20,20.00,30.00,Wednesday
148,27.39796825621275
596,-0.6362581025952017
597,13.49772870687731
2,1, 5, 3, 0,20,30.00,40.00,Wednesday
148,27.229513029360299
596,-0.6786041975521994
597,14.678826156131038
2,1, 5, 3, 0,20,40.00,50.00,Wednesday
148,26.937858557980357
596,-0.758690170920251
597,17.124300932380608
2,1, 5, 3, 0,20,50.00,60.00,Wednesday
148,26.749508174177785
596,-0.8323527910694856
597,19.61566143630823
2,1, 5, 3, 0,21, 0.00,10.00,Wednesday
148,26.560853903776946
596,-0.9096465804298219
597,22.473753206653244
2,1, 5, 3, 0,21,10.00,20.00,Wednesday
148,26.56330494395299
596,-0.9335964163727107
597,23.40878876721753
2,1, 5, 3, 0,21,20.00,30.00,Wednesday
148,26.43383437919651
596,-0.986440317532227
597,25.552207721637573
2,1, 5, 3, 0,21,30.00,40.00,Wednesday
148,26.207767612696473
596,-1.063032081135521
597,28.847567796568087
2,1, 5, 3, 0,21,40.00,50.00,Wednesday
148,26.356238363911026
596,-1.0220701611990666
597,27.05811085465443
2,1, 5, 3, 0,21,50.00,60.00,Wednesday
148,26.199469241466767
596,-1.0818958646516872
597,29.691909136916978
2,1, 5, 3, 0,22, 0.00,10.00,Wednesday
148,26.265205612469605
596,-1.0663429565324745
597,28.994852994836039
2,1, 5, 3, 0,22,10.00,20.00,Wednesday
148,26.192893794663079
596,-1.0858770984966062
597,29.871702472705424
2,1, 5, 3, 0,22,20.00,30.00,Wednesday
148,25.780423082986557
596,-1.2374841425886006
597,37.09904634927197
2,1, 5, 3, 0,22,30.00,40.00,Wednesday
148,25.678889141013174
596,-1.2845682726189474
597,39.477301866301228
2,1, 5, 3, 0,22,40.00,50.00,Wednesday
148,25.810287673056864
596,-1.248711176950909
597,37.66103922734329
2,1, 5, 3, 0,22,50.00,60.00,Wednesday
148,25.753412177465706
596,-1.2689573263326544
597,38.68267488855591
2,1, 5, 3, 0,23, 0.00,10.00,Wednesday
148,25.88295086300871
596,-1.249699764046806
597,37.710682440463298
2,1, 5, 3, 0,23,10.00,20.00,Wednesday
148,25.963190529886896
596,-1.2261085024289467
597,36.53303054585746
2,1, 5, 3, 0,23,20.00,30.00,Wednesday
148,25.953633089199387
596,-1.231088012045987
597,36.780366124970779
2,1, 5, 3, 0,23,30.00,40.00,Wednesday
148,25.974348249181209
596,-1.2410847832696437
597,37.27892356109875
2,1, 5, 3, 0,23,40.00,50.00,Wednesday
148,25.951450644254924
596,-1.2567496311733336
597,38.065427712678957
2,1, 5, 3, 0,23,50.00,60.00,Wednesday
148,25.971743129966659
596,-1.2565231879874335
597,38.05401353576083
2,1, 5, 3, 0,24, 0.00,10.00,Wednesday
148,26.070788266575769
596,-1.233220878666844
597,36.886512063442427
2,1, 5, 3, 0,24,10.00,20.00,Wednesday
148,26.12550630018733
596,-1.2263614870085103
597,36.545580213392508
2,1, 5, 3, 0,24,20.00,30.00,Wednesday
148,26.01933801527371
596,-1.259663527060143
597,38.212422183264148
2,1, 5, 3, 0,24,30.00,40.00,Wednesday
148,26.00216067070849
596,-1.2684135052701858
597,38.65509950421221
2,1, 5, 3, 0,24,40.00,50.00,Wednesday
148,25.93273014460728
596,-1.2966671024875006
597,40.097097203806978
2,1, 5, 3, 0,24,50.00,60.00,Wednesday
148,25.94996068750351
596,-1.2966580848482774
597,40.09663400414165
2,2, 5, 4, 0, 1, 0.00,10.00,Thursday
148,26.13650688556139
596,-1.2497824104639164
597,37.714833782212398
2,2, 5, 4, 0, 1,10.00,20.00,Thursday
148,26.21617327626289
596,-1.2331500693108742
597,36.88298614596234
2,2, 5, 4, 0, 1,20.00,30.00,Thursday
148,26.00639650076243
596,-1.295602133021469
597,40.042406741508468
2,2, 5, 4, 0, 1,30.00,40.00,Thursday
148,25.743233418043446
596,-1.378992143667739
597,44.395489305543737
2,2, 5, 4, 0, 1,40.00,50.00,Thursday
148,25.71362756355233
596,-1.3925065406071973
597,45.112840212640509
2,2, 5, 4, 0, 1,50.00,60.00,Thursday
148,25.82709995681008
596,-1.364655772989882
597,43.6377681863221
2,2, 5, 4, 0, 2, 0.00,10.00,Thursday
148,26.040742308400867
596,-1.3101657197409156
597,40.79249622947551
2,2, 5, 4, 0, 2,10.00,20.00,Thursday
148,26.008890878675193
596,-1.3238229492129928
597,41.50007312694643
2,2, 5, 4, 0, 2,20.00,30.00,Thursday
148,26.008239253921106
596,-1.3268744672859288
597,41.65870335939489
2,2, 5, 4, 0, 2,30.00,40.00,Thursday
148,25.91389647937013
596,-1.3597881101227143
597,43.38130168072812
2,2, 5, 4, 0, 2,40.00,50.00,Thursday
148,25.7995465446115
596,-1.3985799010264955
597,45.4361337919991
2,2, 5, 4, 0, 2,50.00,60.00,Thursday
148,25.745686530537289
596,-1.4228190292446055
597,46.731631496613
2,2, 5, 4, 0, 3, 0.00,10.00,Thursday
148,25.836761869252823
596,-1.4061209567226583
597,45.83830748824763
2,2, 5, 4, 0, 3,10.00,20.00,Thursday
148,25.636316601083835
596,-1.473616706764307
597,49.46922913957442
2,2, 5, 4, 0, 3,20.00,30.00,Thursday
148,25.64827604003552
596,-1.48191616164798
597,49.91881897117126
2,2, 5, 4, 0, 3,30.00,40.00,Thursday
148,25.358012464716624
596,-1.573725022586263
597,54.914355567509499
2,2, 5, 4, 0, 3,40.00,50.00,Thursday
148,25.168587990595655
596,-1.6363118411197933
597,58.31812727961114
2,2, 5, 4, 0, 3,50.00,60.00,Thursday
148,25.288263749917158
596,-1.6165529605641247
597,57.245545938507117
2,2, 5, 4, 0, 4, 0.00,10.00,Thursday
148,25.25704330703215
596,-1.63574987979321
597,58.28765860269341
2,2, 5, 4, 0, 4,10.00,20.00,Thursday
148,25.122482605322788
596,-1.6812873832246647
597,60.74749187652888
2,2, 5, 4, 0, 4,20.00,30.00,Thursday
148,24.97981744346034
596,-1.734158703894113
597,63.57180250445212
2,2, 5, 4, 0, 4,30.00,40.00,Thursday
148,24.831859861105767
596,-1.7886022105169644
597,66.42976439067084
2,2, 5, 4, 0, 4,40.00,50.00,Thursday
148,24.77361891357894
596,-1.8148873885136395
597,67.78668721765837
2,2, 5, 4, 0, 4,50.00,60.00,Thursday
148,24.7243941490565
596,-1.8306604511710503
597,68.59276549988
2,2, 5, 4, 0, 5, 0.00,10.00,Thursday
148,24.6630717335363
596,-1.8631430676033472
597,70.23165030918965
2,2, 5, 4, 0, 5,10.00,20.00,Thursday
148,24.54844084881169
596,-1.9093659056834696
597,72.50958438366067
2,2, 5, 4, 0, 5,20.00,30.00,Thursday
148,24.29505233364672
596,-1.9911028886680305
597,76.35818188587342
2,2, 5, 4, 0, 5,30.00,40.00,Thursday
148,24.240269912835858
596,-2.0169881548787509
597,77.52359793409346
2,2, 5, 4, 0, 5,40.00,50.00,Thursday
148,24.25825953578181
596,-2.0249588966066929
597,77.87691577549183
2,2, 5, 4, 0, 5,50.00,60.00,Thursday
148,24.194978541213535
596,-2.056380482959365
597,79.24343495169309
2,2, 5, 4, 0, 6, 0.00,10.00,Thursday
148,24.394685626211925
596,-1.9991958280611176
597,76.72546158890782
2,2, 5, 4, 0, 6,10.00,20.00,Thursday
148,23.726330153531806
596,-2.21538875921457
597,85.4619944574836
2,2, 5, 4, 0, 6,20.00,30.00,Thursday
148,23.487129451927104
596,-2.3055271073068206
597,88.43156331917051
2,2, 5, 4, 0, 6,30.00,40.00,Thursday
148,23.144209812356484
596,-2.428630586454189
597,91.81614476406472
2,2, 5, 4, 0, 6,40.00,50.00,Thursday
148,22.938245106172194
596,-2.511113652316411
597,93.66141715170692
2,2, 5, 4, 0, 6,50.00,60.00,Thursday
148,23.13875520250064
596,-2.450879668714016
597,92.34644189198937
2,2, 5, 4, 0, 7, 0.00,10.00,Thursday
148,23.606817585773073
596,-2.3070220499106437
597,88.47730739935433
2,2, 5, 4, 0, 7,10.00,20.00,Thursday
148,23.86711268077341
596,-2.220978419572885
597,85.65816749724924
2,2, 5, 4, 0, 7,20.00,30.00,Thursday
148,23.550079135223635
596,-2.3175992525923649
597,88.79768283628471
2,2, 5, 4, 0, 7,30.00,40.00,Thursday
148,23.87590145780318
596,-2.2291062717895375
597,85.94060521112053
2,2, 5, 4, 0, 7,40.00,50.00,Thursday
148,24.152719601208486
596,-2.1346877303874796
597,82.45672030553374
2,2, 5, 4, 0, 7,50.00,60.00,Thursday
148,24.308575614420464
596,-2.0815150081892965
597,80.30540373040708
2,2, 5, 4, 0, 8, 0.00,10.00,Thursday
148,24.324579003298117
596,-2.069480386572493
597,79.80044378991966
2,2, 5, 4, 0, 8,10.00,20.00,Thursday
148,24.15308967347031
596,-2.1114968773820705
597,81.53467249784143
2,2, 5, 4, 0, 8,20.00,30.00,Thursday
148,23.981689632973
596,-2.156467067664436
597,83.29924473218373
2,2, 5, 4, 0, 8,30.00,40.00,Thursday
148,24.094249710674057
596,-2.106445990016214
597,81.33049592640598
2,2, 5, 4, 0, 8,40.00,50.00,Thursday
148,24.347412011659455
596,-2.0065532532716299
597,77.05707281567385
2,2, 5, 4, 0, 8,50.00,60.00,Thursday
148,24.79685683705636
596,-1.8543798524017368
597,69.79243651455988
2,2, 5, 4, 0, 9, 0.00,10.00,Thursday
148,25.150669237775877
596,-1.7294625805745834
597,63.32267141647888
2,2, 5, 4, 0, 9,10.00,20.00,Thursday
148,25.37730930876152
596,-1.6590700439173736
597,59.549869407610348
2,2, 5, 4, 0, 9,20.00,30.00,Thursday
148,25.64927228744117
596,-1.5498614075005178
597,53.61391157261987
2,2, 5, 4, 0, 9,30.00,40.00,Thursday
148,25.9201648892824
596,-1.4474360318637414
597,48.05492482803606
2,2, 5, 4, 0, 9,40.00,50.00,Thursday
148,26.132729081488088
596,-1.3582469902260546
597,43.300191150570999
2,2, 5, 4, 0, 9,50.00,60.00,Thursday
148,26.211736163028367
596,-1.3306604970041334
597,41.85578000616288
2,2, 5, 4, 0,10, 0.00,10.00,Thursday
148,27.83875854759937
596,0.16431930949044214
597,5.55959839764887
2,2, 5, 4, 0,10,10.00,20.00,Thursday
148,27.9077799675226
596,0.20507320782020672
597,5.872165428953025
2,2, 5, 4, 0,10,20.00,30.00,Thursday
148,28.16215305587242
596,0.27248747765965505
597,6.541910827093247
2,2, 5, 4, 0,10,30.00,40.00,Thursday
148,28.39599784896891
596,0.3257056362679362
597,7.205830306233153
2,2, 5, 4, 0,10,40.00,50.00,Thursday
148,28.520924862877796
596,0.3677738705223802
597,7.815607498827617
2,2, 5, 4, 0,10,50.00,60.00,Thursday
148,28.75639136651644
596,0.4340454602733752
597,8.929362172355056
2,2, 5, 4, 0,11, 0.00,10.00,Thursday
148,28.92201004262073
596,0.484706476635418
597,9.907886462693128
2,2, 5, 4, 0,11,10.00,20.00,Thursday
148,28.962947653517025
596,0.5063746492021317
597,10.360197676310776
2,2, 5, 4, 0,11,20.00,30.00,Thursday
148,29.10828965079949
596,0.5487958373025211
597,11.304511224597889
2,2, 5, 4, 0,11,30.00,40.00,Thursday
148,29.235315985468824
596,0.5935098913923929
597,12.384296274673588
2,2, 5, 4, 0,11,40.00,50.00,Thursday
148,29.273543006423
596,0.6060850021958035
597,12.703598061055459
2,2, 5, 4, 0,11,50.00,60.00,Thursday
148,29.518415806302764
596,0.6781081337503799
597,14.66454060646494
2,2, 5, 4, 0,12, 0.00,10.00,Thursday
148,29.668663051648577
596,0.7333432003873349
597,16.320468889723615
2,2, 5, 4, 0,12,10.00,20.00,Thursday
148,29.958629545203075
596,0.8070738395914944
597,18.734819624638349
2,2, 5, 4, 0,12,20.00,30.00,Thursday
148,30.175313144309237
596,0.8753307992409727
597,21.17449368576726
2,2, 5, 4, 0,12,30.00,40.00,Thursday
148,30.28701983266275
596,0.9088670674318325
597,22.443707753045488
2,2, 5, 4, 0,12,40.00,50.00,Thursday
148,30.378243621775725
596,0.9377597322617136
597,23.573671859569786
2,2, 5, 4, 0,12,50.00,60.00,Thursday
148,30.382546947582413
596,0.9412144361580396
597,23.71101425139568
2,2, 5, 4, 0,13, 0.00,10.00,Thursday
148,30.458313768919238
596,0.9689942303783503
597,24.832513218851135
2,2, 5, 4, 0,13,10.00,20.00,Thursday
148,30.698454239267869
596,1.0489974553841264
597,28.227586769906709
2,2, 5, 4, 0,13,20.00,30.00,Thursday
148,30.884043723500356
596,1.0958544810034537
597,30.324690741416519
2,2, 5, 4, 0,13,30.00,40.00,Thursday
148,30.91720607198772
596,1.1082144036455886
597,30.89056910143472
2,2, 5, 4, 0,13,40.00,50.00,Thursday
148,30.995893583808035
596,1.1255965993207998
597,31.69506405210352
2,2, 5, 4, 0,13,50.00,60.00,Thursday
148,31.138269370998367
596,1.164144003627368
597,33.51415513055953
2,2, 5, 4, 0,14, 0.00,10.00,Thursday
148,31.196699879756648
596,1.1916854361350625
597,34.84212006323989
2,2, 5, 4, 0,14,10.00,20.00,Thursday
148,31.33513947359575
596,1.2182735072765128
597,36.1452335770634
2,2, 5, 4, 0,14,20.00,30.00,Thursday
148,31.337476734669928
596,1.2168857027161154
597,36.07672033543482
2,2, 5, 4, 0,14,30.00,40.00,Thursday
148,31.220103881052169
596,1.1934393190260647
597,34.927453105815747
2,2, 5, 4, 0,14,40.00,50.00,Thursday
148,31.366362420680376
596,1.2096102900849966
597,35.71842853217444
2,2, 5, 4, 0,14,50.00,60.00,Thursday
148,31.39283970195769
596,1.2507846360330373
597,37.765189723953067
2,2, 5, 4, 0,15, 0.00,10.00,Thursday
148,31.68203052278879
596,1.323666471743763
597,41.491943950150908
2,2, 5, 4, 0,15,10.00,20.00,Thursday
148,31.43097288698096
596,1.2692710091363806
597,38.698584012422148
2,2, 5, 4, 0,15,20.00,30.00,Thursday
148,31.57211910768435
596,1.2825024580665763
597,39.37181437875834
2,2, 5, 4, 0,15,30.00,40.00,Thursday
148,31.481166928750484
596,1.2516671498396155
597,37.80955223987297
2,2, 5, 4, 0,15,40.00,50.00,Thursday
148,31.364300800564977
596,1.2372111183991413
597,37.08542089155829
2,2, 5, 4, 0,15,50.00,60.00,Thursday
148,31.596738216575319
596,1.2999355053605853
597,40.265102391673227
2,2, 5, 4, 0,16, 0.00,10.00,Thursday
148,31.9001421391508
596,1.3861964217964773
597,44.77753799867672
2,2, 5, 4, 0,16,10.00,20.00,Thursday
148,32.12527153258853
596,1.459225289636083
597,48.690995274128628
2,2, 5, 4, 0,16,20.00,30.00,Thursday
148,32.096506751913327
596,1.4595175089571633
597,48.70677880663498
2,2, 5, 4, 0,16,30.00,40.00,Thursday
148,32.21816325638495
596,1.482101572789631
597,49.92886890530834
2,2, 5, 4, 0,16,40.00,50.00,Thursday
148,32.26898597852815
596,1.4794343930433798
597,49.78432317831626
2,2, 5, 4, 0,16,50.00,60.00,Thursday
148,32.13090168263816
596,1.4381196152981815
597,47.55329869457622
2,2, 5, 4, 0,17, 0.00,10.00,Thursday
148,31.94266815806637
596,1.413760215714471
597,46.246534217864439
2,2, 5, 4, 0,17,10.00,20.00,Thursday
148,32.3669844468799
596,1.505173452811455
597,51.181242393422277
2,2, 5, 4, 0,17,20.00,30.00,Thursday
148,32.265130069832597
596,1.4844377236574536
597,50.05551806991307
2,2, 5, 4, 0,17,30.00,40.00,Thursday
148,32.327832120552148
596,1.5050119229642907
597,51.1724632538193
2,2, 5, 4, 0,17,40.00,50.00,Thursday
148,32.03389744127949
596,1.432659596293099
597,47.259765986520658
2,2, 5, 4, 0,17,50.00,60.00,Thursday
148,32.17118813696451
596,1.4421552219912362
597,47.77047230716737
2,2, 5, 4, 0,18, 0.00,10.00,Thursday
148,31.837496610638128
596,1.3661582598081983
597,43.71701492149782
2,2, 5, 4, 0,18,10.00,20.00,Thursday
148,31.90811665646298
596,1.3782568016252022
597,44.356540628091277
2,2, 5, 4, 0,18,20.00,30.00,Thursday
148,31.864608930666834
596,1.3790739448033276
597,44.39982259152604
2,2, 5, 4, 0,18,30.00,40.00,Thursday
148,32.002965260284188
596,1.4159983188841015
597,46.36628406816649
2,2, 5, 4, 0,18,40.00,50.00,Thursday
148,32.014265394005928
596,1.4250127281882053
597,46.84926213493187
2,2, 5, 4, 0,18,50.00,60.00,Thursday
148,31.873007951640426
596,1.381246448456255
597,44.51494733073136
2,2, 5, 4, 0,19, 0.00,10.00,Thursday
148,30.385154154067803
596,0.30986208460144207
597,6.995653963000521
2,2, 5, 4, 0,19,10.00,20.00,Thursday
148,29.86778748157854
596,0.1545202571102095
597,5.4947786776930489
2,2, 5, 4, 0,19,20.00,30.00,Thursday
148,29.946029255906159
596,0.16312126590954219
597,5.551458727402036
2,2, 5, 4, 0,19,30.00,40.00,Thursday
148,29.542037607363576
596,0.05904947420029375
597,5.072190624654212
2,2, 5, 4, 0,19,40.00,50.00,Thursday
148,29.412918472170973
596,0.0070530476625997799
597,5.001029758637685
2,2, 5, 4, 0,19,50.00,60.00,Thursday
148,29.397539060300443
596,-0.025465742087562607
597,5.013424748454128
2,2, 5, 4, 0,20, 0.00,10.00,Thursday
148,29.34556632195316
596,-0.05512992450628157
597,5.062923783353199
2,2, 5, 4, 0,20,10.00,20.00,Thursday
148,29.088446333597465
596,-0.1300427745476692
597,5.350332118339281
2,2, 5, 4, 0,20,20.00,30.00,Thursday
148,28.818520924663735
596,-0.20819802794069248
597,5.898996848746563
2,2, 5, 4, 0,20,30.00,40.00,Thursday
148,28.68001088072462
596,-0.2506019530112831
597,6.30355603244503
2,2, 5, 4, 0,20,40.00,50.00,Thursday
148,28.606557175311726
596,-0.2754189306477605
597,6.575369049335677
2,2, 5, 4, 0,20,50.00,60.00,Thursday
148,28.431412214221074
596,-0.3187649860993725
597,7.112448477012009
2,2, 5, 4, 0,21, 0.00,10.00,Thursday
148,28.306119614422089
596,-0.3555096956900007
597,7.630066148194473
2,2, 5, 4, 0,21,10.00,20.00,Thursday
148,28.326748293910435
596,-0.3566872227335008
597,7.647602683388456
2,2, 5, 4, 0,21,20.00,30.00,Thursday
148,28.34658622273405
596,-0.3623551255678005
597,7.732838849143761
2,2, 5, 4, 0,21,30.00,40.00,Thursday
148,28.292440292269057
596,-0.37646947125070998
597,7.951044367259101
2,2, 5, 4, 0,21,40.00,50.00,Thursday
148,28.28755912999907
596,-0.38419187761325887
597,8.074028013508269
2,2, 5, 4, 0,21,50.00,60.00,Thursday
148,28.18914312065974
596,-0.41501666701219977
597,8.590323608263973
2,2, 5, 4, 0,22, 0.00,10.00,Thursday
148,28.043468657241186
596,-0.46215005732202515
597,9.458557881624785
2,2, 5, 4, 0,22,10.00,20.00,Thursday
148,27.949050452869565
596,-0.4893599406126194
597,10.003315217859836
2,2, 5, 4, 0,22,20.00,30.00,Thursday
148,27.772042131305175
596,-0.5449432101455973
597,11.21553254223035
2,2, 5, 4, 0,22,30.00,40.00,Thursday
148,27.776226702040085
596,-0.538482547239622
597,11.067763443040392
2,2, 5, 4, 0,22,40.00,50.00,Thursday
148,27.84425031417335
596,-0.5357937975479009
597,11.006798923154378