Program Version,EnergyPlus, Version 9.5.0-de239b2e5f, YMD=2021.12.01 13:25
1,5,Environment Title[],Latitude[deg],Longitude[deg],Time Zone[],Elevation[m]
2,8,Day of Simulation[],Month[],Day of Month[],DST Indicator[1=yes 0=no],Hour[],StartMinute[],EndMinute[],DayType
3,5,Cumulative Day of Simulation[],Month[],Day of Month[],DST Indicator[1=yes 0=no],DayType  ! When Daily Report Variables Requested
4,2,Cumulative Days of Simulation[],Month[]  ! When Monthly Report Variables Requested
5,1,Cumulative Days of Simulation[] ! When Run Period Report Variables Requested
6,1,Calendar Year of Simulation[] ! When Annual Report Variables Requested
7,1,Environment,Site Outdoor Air Drybulb Temperature [C] !TimeStep
8,1,Environment,Site Diffuse Solar Radiation Rate per Area [W/m2] !TimeStep
End of Data Dictionary
1,RUN PERIOD 1,  18.85, -99.14,  -6.00,1280.00
2,1, 5, 3, 0, 1, 0.00,10.00,Friday
7,23.0
8,0.0
2,1, 5, 3, 0, 1,10.00,20.00,Friday
7,23.0
8,0.0
2,1, 5, 3, 0, 1,20.00,30.00,Friday
7,23.0
8,0.0
2,1, 5, 3, 0, 1,30.00,40.00,Friday
7,22.8
8,0.0
2,1, 5, 3, 0, 1,40.00,50.00,Friday
7,22.7
8,0.0
2,1, 5, 3, 0, 1,50.00,60.00,Friday
7,22.6
8,0.0
2,1, 5, 3, 0, 2, 0.00,10.00,Friday
7,22.5
8,0.0
2,1, 5, 3, 0, 2,10.00,20.00,Friday
7,22.4
8,0.0
2,1, 5, 3, 0, 2,20.00,30.00,Friday
7,22.3
8,0.0
2,1, 5, 3, 0, 2,30.00,40.00,Friday
7,22.4
8,0.0
2,1, 5, 3, 0, 2,40.00,50.00,Friday
7,22.5
8,0.0
2,1, 5, 3, 0, 2,50.00,60.00,Friday
7,22.3
8,0.0
2,1, 5, 3, 0, 3, 0.00,10.00,Friday
7,22.1
8,0.0
2,1, 5, 3, 0, 3,10.00,20.00,Friday
7,22.0
8,0.0
2,1, 5, 3, 0, 3,20.00,30.00,Friday
7,22.0
8,0.0
2,1, 5, 3, 0, 3,30.00,40.00,Friday
7,21.9
8,0.0
2,1, 5, 3, 0, 3,40.00,50.00,Friday
7,21.9
8,0.0
2,1, 5, 3, 0, 3,50.00,60.00,Friday
7,21.7
8,0.0
2,1, 5, 3, 0, 4, 0.00,10.00,Friday
7,21.7
8,0.0
2,1, 5, 3, 0, 4,10.00,20.00,Friday
7,21.8
8,0.0
2,1, 5, 3, 0, 4,20.00,30.00,Friday
7,21.5
8,0.0
2,1, 5, 3, 0, 4,30.00,40.00,Friday
7,21.4
8,0.0
2,1, 5, 3, 0, 4,40.00,50.00,Friday
7,21.1
8,0.0
2,1, 5, 3, 0, 4,50.00,60.00,Friday
7,21.2
8,0.0
2,1, 5, 3, 0, 5, 0.00,10.00,Friday
7,21.0
8,0.0
2,1, 5, 3, 0, 5,10.00,20.00,Friday
7,20.8
8,0.0
2,1, 5, 3, 0, 5,20.00,30.00,Friday
7,20.9
8,0.0
2,1, 5, 3, 0, 5,30.00,40.00,Friday
7,20.8
8,0.0
2,1, 5, 3, 0, 5,40.00,50.00,Friday
7,21.1
8,0.0
2,1, 5, 3, 0, 5,50.00,60.00,Friday
7,20.8
8,0.0
2,1, 5, 3, 0, 6, 0.00,10.00,Friday
7,20.8
8,0.0
2,1, 5, 3, 0, 6,10.00,20.00,Friday
7,20.1
8,0.0
2,1, 5, 3, 0, 6,20.00,30.00,Friday
7,20.1
8,0.0
2,1, 5, 3, 0, 6,30.00,40.00,Friday
7,19.5
8,0.0
2,1, 5, 3, 0, 6,40.00,50.00,Friday
7,19.6
8,0.0
2,1, 5, 3, 0, 6,50.00,60.00,Friday
7,19.5
8,0.0
2,1, 5, 3, 0, 7, 0.00,10.00,Friday
7,19.6
8,0.0
2,1, 5, 3, 0, 7,10.00,20.00,Friday
7,19.9
8,0.0
2,1, 5, 3, 0, 7,20.00,30.00,Friday
7,19.6
8,1.824
2,1, 5, 3, 0, 7,30.00,40.00,Friday
7,19.4
8,9.63
2,1, 5, 3, 0, 7,40.00,50.00,Friday
7,19.5
8,20.3
2,1, 5, 3, 0, 7,50.00,60.00,Friday
7,19.8
8,31.65
2,1, 5, 3, 0, 8, 0.00,10.00,Friday
7,20.1
8,43.26
2,1, 5, 3, 0, 8,10.00,20.00,Friday
7,20.1
8,54.53
2,1, 5, 3, 0, 8,20.00,30.00,Friday
7,20.7
8,65.97
2,1, 5, 3, 0, 8,30.00,40.00,Friday
7,21.2
8,77.64
2,1, 5, 3, 0, 8,40.00,50.00,Friday
7,22.0
8,88.2
2,1, 5, 3, 0, 8,50.00,60.00,Friday
7,22.9
8,98.1
2,1, 5, 3, 0, 9, 0.00,10.00,Friday
7,24.3
8,106.6
2,1, 5, 3, 0, 9,10.00,20.00,Friday
7,24.3
8,114.5
2,1, 5, 3, 0, 9,20.00,30.00,Friday
7,24.4
8,122.5
2,1, 5, 3, 0, 9,30.00,40.00,Friday
7,24.7
8,129.4
2,1, 5, 3, 0, 9,40.00,50.00,Friday
7,25.1
8,136.0
2,1, 5, 3, 0, 9,50.00,60.00,Friday
7,25.4
8,143.7
2,1, 5, 3, 0,10, 0.00,10.00,Friday
7,25.9
8,152.0
2,1, 5, 3, 0,10,10.00,20.00,Friday
7,26.2
8,157.8
2,1, 5, 3, 0,10,20.00,30.00,Friday
7,26.3
8,158.5
2,1, 5, 3, 0,10,30.00,40.00,Friday
7,26.4
8,165.0
2,1, 5, 3, 0,10,40.00,50.00,Friday
7,26.4
8,168.6
2,1, 5, 3, 0,10,50.00,60.00,Friday
7,25.9
8,173.9
2,1, 5, 3, 0,11, 0.00,10.00,Friday
7,26.2
8,174.4
2,1, 5, 3, 0,11,10.00,20.00,Friday
7,26.9
8,176.0
2,1, 5, 3, 0,11,20.00,30.00,Friday
7,27.2
8,178.3
2,1, 5, 3, 0,11,30.00,40.00,Friday
7,27.3
8,179.2
2,1, 5, 3, 0,11,40.00,50.00,Friday
7,27.4
8,180.5
2,1, 5, 3, 0,11,50.00,60.00,Friday
7,27.6
8,181.8
2,1, 5, 3, 0,12, 0.00,10.00,Friday
7,28.5
8,184.5
2,1, 5, 3, 0,12,10.00,20.00,Friday
7,28.0
8,187.7
2,1, 5, 3, 0,12,20.00,30.00,Friday
7,29.1
8,191.3
2,1, 5, 3, 0,12,30.00,40.00,Friday
7,29.2
8,194.3
2,1, 5, 3, 0,12,40.00,50.00,Friday
7,29.9
8,199.7
2,1, 5, 3, 0,12,50.00,60.00,Friday
7,30.5
8,202.6
2,1, 5, 3, 0,13, 0.00,10.00,Friday
7,31.4
8,204.0
2,1, 5, 3, 0,13,10.00,20.00,Friday
7,30.8
8,205.0
2,1, 5, 3, 0,13,20.00,30.00,Friday
7,30.6
8,208.6
2,1, 5, 3, 0,13,30.00,40.00,Friday
7,30.8
8,212.7
2,1, 5, 3, 0,13,40.00,50.00,Friday
7,30.9
8,215.7
2,1, 5, 3, 0,13,50.00,60.00,Friday
7,31.5
8,220.6
2,1, 5, 3, 0,14, 0.00,10.00,Friday
7,31.8
8,223.7
2,1, 5, 3, 0,14,10.00,20.00,Friday
7,32.0
8,229.7
2,1, 5, 3, 0,14,20.00,30.00,Friday
7,31.8
8,235.4
2,1, 5, 3, 0,14,30.00,40.00,Friday
7,31.6
8,243.3
2,1, 5, 3, 0,14,40.00,50.00,Friday
7,32.8
8,264.8
2,1, 5, 3, 0,14,50.00,60.00,Friday
7,33.5
8,313.1
2,1, 5, 3, 0,15, 0.00,10.00,Friday
7,31.8
8,301.6
2,1, 5, 3, 0,15,10.00,20.00,Friday
7,32.4
8,330.0
2,1, 5, 3, 0,15,20.00,30.00,Friday
7,32.8
8,310.1
2,1, 5, 3, 0,15,30.00,40.00,Friday
7,33.7
8,306.0
2,1, 5, 3, 0,15,40.00,50.00,Friday
7,32.9
8,306.6
2,1, 5, 3, 0,15,50.00,60.00,Friday
7,33.3
8,320.3
2,1, 5, 3, 0,16, 0.00,10.00,Friday
7,33.9
8,347.2
2,1, 5, 3, 0,16,10.00,20.00,Friday
7,33.6
8,310.9
2,1, 5, 3, 0,16,20.00,30.00,Friday
7,32.9
8,319.7
2,1, 5, 3, 0,16,30.00,40.00,Friday
7,33.3
8,274.8
2,1, 5, 3, 0,16,40.00,50.00,Friday
7,33.5
8,196.6
2,1, 5, 3, 0,16,50.00,60.00,Friday
7,32.9
8,121.4
2,1, 5, 3, 0,17, 0.00,10.00,Friday
7,32.6
8,83.0
2,1, 5, 3, 0,17,10.00,20.00,Friday
7,30.9
8,60.94
2,1, 5, 3, 0,17,20.00,30.00,Friday
7,29.4
8,49.32
2,1, 5, 3, 0,17,30.00,40.00,Friday
7,29.0
8,37.39
2,1, 5, 3, 0,17,40.00,50.00,Friday
7,28.4
8,43.15
2,1, 5, 3, 0,17,50.00,60.00,Friday
7,29.2
8,61.68
2,1, 5, 3, 0,18, 0.00,10.00,Friday
7,28.0
8,100.8
2,1, 5, 3, 0,18,10.00,20.00,Friday
7,26.8
8,131.9
2,1, 5, 3, 0,18,20.00,30.00,Friday
7,26.8
8,117.0
2,1, 5, 3, 0,18,30.00,40.00,Friday
7,27.5
8,94.2
2,1, 5, 3, 0,18,40.00,50.00,Friday
7,28.0
8,98.2
2,1, 5, 3, 0,18,50.00,60.00,Friday
7,28.3
8,85.8
2,1, 5, 3, 0,19, 0.00,10.00,Friday
7,28.1
8,93.6
2,1, 5, 3, 0,19,10.00,20.00,Friday
7,28.4
8,72.01
2,1, 5, 3, 0,19,20.00,30.00,Friday
7,28.3
8,39.85
2,1, 5, 3, 0,19,30.00,40.00,Friday
7,28.1
8,33.48
2,1, 5, 3, 0,19,40.00,50.00,Friday
7,27.9
8,26.09
2,1, 5, 3, 0,19,50.00,60.00,Friday
7,27.8
8,0.0
2,1, 5, 3, 0,20, 0.00,10.00,Friday
7,27.7
8,0.0
2,1, 5, 3, 0,20,10.00,20.00,Friday
7,27.4
8,0.0
2,1, 5, 3, 0,20,20.00,30.00,Friday
7,27.0
8,0.0
2,1, 5, 3, 0,20,30.00,40.00,Friday
7,26.9
8,0.0
2,1, 5, 3, 0,20,40.00,50.00,Friday
7,26.6
8,0.0
2,1, 5, 3, 0,20,50.00,60.00,Friday
7,26.3
8,0.0
2,1, 5, 3, 0,21, 0.00,10.00,Friday
7,26.0
8,0.0
2,1, 5, 3, 0,21,10.00,20.00,Friday
7,26.3
8,0.0
2,1, 5, 3, 0,21,20.00,30.00,Friday
7,26.1
8,0.0
2,1, 5, 3, 0,21,30.00,40.00,Friday
7,26.0
8,0.0
2,1, 5, 3, 0,21,40.00,50.00,Friday
7,26.2
8,0.0
2,1, 5, 3, 0,21,50.00,60.00,Friday
7,25.9
8,0.0
2,1, 5, 3, 0,22, 0.00,10.00,Friday
7,26.1
8,0.0
2,1, 5, 3, 0,22,10.00,20.00,Friday
7,25.9
8,0.0
2,1, 5, 3, 0,22,20.00,30.00,Friday
7,25.3
8,0.0
2,1, 5, 3, 0,22,30.00,40.00,Friday
7,25.3
8,0.0
2,1, 5, 3, 0,22,40.00,50.00,Friday
7,25.4
8,0.0
2,1, 5, 3, 0,22,50.00,60.00,Friday
7,25.2
8,0.0
2,1, 5, 3, 0,23, 0.00,10.00,Friday
7,25.1
8,0.0
2,1, 5, 3, 0,23,10.00,20.00,Friday
7,25.6
8,0.0
2,1, 5, 3, 0,23,20.00,30.00,Friday
7,25.5
8,0.0
2,1, 5, 3, 0,23,30.00,40.00,Friday
7,25.0
8,0.0
2,1, 5, 3, 0,23,40.00,50.00,Friday
7,25.0
8,0.0
2,1, 5, 3, 0,23,50.00,60.00,Friday
7,25.3
8,0.0
2,1, 5, 3, 0,24, 0.00,10.00,Friday
7,25.4
8,0.0
2,1, 5, 3, 0,24,10.00,20.00,Friday
7,25.4
8,0.0
2,1, 5, 3, 0,24,20.00,30.00,Friday
7,25.4
8,0.0
2,1, 5, 3, 0,24,30.00,40.00,Friday
7,25.5
8,0.0
2,1, 5, 3, 0,24,40.00,50.00,Friday
7,25.5
8,0.0
2,1, 5, 3, 0,24,50.00,60.00,Friday
7,25.6
8,0.0
2,2, 5, 4, 0, 1, 0.00,10.00,Saturday
7,25.4
8,0.0
2,2, 5, 4, 0, 1,10.00,20.00,Saturday
7,25.0
8,0.0
2,2, 5, 4, 0, 1,20.00,30.00,Saturday
7,24.9
8,0.0
2,2, 5, 4, 0, 1,30.00,40.00,Saturday
7,24.6
8,0.0
2,2, 5, 4, 0, 1,40.00,50.00,Saturday
7,24.7
8,0.0
2,2, 5, 4, 0, 1,50.00,60.00,Saturday
7,24.7
8,0.0
2,2, 5, 4, 0, 2, 0.00,10.00,Saturday
7,24.7
8,0.0
2,2, 5, 4, 0, 2,10.00,20.00,Saturday
7,24.6
8,0.0
2,2, 5, 4, 0, 2,20.00,30.00,Saturday
7,24.7
8,0.0
2,2, 5, 4, 0, 2,30.00,40.00,Saturday
7,24.6
8,0.0
2,2, 5, 4, 0, 2,40.00,50.00,Saturday
7,24.6
8,0.0
2,2, 5, 4, 0, 2,50.00,60.00,Saturday
7,24.5
8,0.0
2,2, 5, 4, 0, 3, 0.00,10.00,Saturday
7,24.3
8,0.0
2,2, 5, 4, 0, 3,10.00,20.00,Saturday
7,23.9
8,0.0
2,2, 5, 4, 0, 3,20.00,30.00,Saturday
7,23.6
8,0.0
2,2, 5, 4, 0, 3,30.00,40.00,Saturday
7,23.4
8,0.0
2,2, 5, 4, 0, 3,40.00,50.00,Saturday
7,23.3
8,0.0
2,2, 5, 4, 0, 3,50.00,60.00,Saturday
7,22.8
8,0.0
2,2, 5, 4, 0, 4, 0.00,10.00,Saturday
7,22.4
8,0.0
2,2, 5, 4, 0, 4,10.00,20.00,Saturday
7,22.1
8,0.0
2,2, 5, 4, 0, 4,20.00,30.00,Saturday
7,21.8
8,0.0
2,2, 5, 4, 0, 4,30.00,40.00,Saturday
7,21.6
8,0.0
2,2, 5, 4, 0, 4,40.00,50.00,Saturday
7,21.7
8,0.0
2,2, 5, 4, 0, 4,50.00,60.00,Saturday
7,21.9
8,0.0
2,2, 5, 4, 0, 5, 0.00,10.00,Saturday
7,21.4
8,0.0
2,2, 5, 4, 0, 5,10.00,20.00,Saturday
7,21.3
8,0.0
2,2, 5, 4, 0, 5,20.00,30.00,Saturday
7,21.7
8,0.0
2,2, 5, 4, 0, 5,30.00,40.00,Saturday
7,21.7
8,0.0
2,2, 5, 4, 0, 5,40.00,50.00,Saturday
7,21.3
8,0.0
2,2, 5, 4, 0, 5,50.00,60.00,Saturday
7,21.1
8,0.0
2,2, 5, 4, 0, 6, 0.00,10.00,Saturday
7,21.2
8,0.0
2,2, 5, 4, 0, 6,10.00,20.00,Saturday
7,20.8
8,0.0
2,2, 5, 4, 0, 6,20.00,30.00,Saturday
7,20.7
8,0.0
2,2, 5, 4, 0, 6,30.00,40.00,Saturday
7,20.3
8,0.0
2,2, 5, 4, 0, 6,40.00,50.00,Saturday
7,20.3
8,0.0
2,2, 5, 4, 0, 6,50.00,60.00,Saturday
7,20.7
8,0.0
2,2, 5, 4, 0, 7, 0.00,10.00,Saturday
7,20.8
8,0.0
2,2, 5, 4, 0, 7,10.00,20.00,Saturday
7,21.0
8,0.0
2,2, 5, 4, 0, 7,20.00,30.00,Saturday
7,21.1
8,2.832
2,2, 5, 4, 0, 7,30.00,40.00,Saturday
7,20.9
8,11.28
2,2, 5, 4, 0, 7,40.00,50.00,Saturday
7,21.1
8,24.65
2,2, 5, 4, 0, 7,50.00,60.00,Saturday
7,21.1
8,37.95
2,2, 5, 4, 0, 8, 0.00,10.00,Saturday
7,21.1
8,51.26
2,2, 5, 4, 0, 8,10.00,20.00,Saturday
7,21.4
8,61.72
2,2, 5, 4, 0, 8,20.00,30.00,Saturday
7,21.8
8,74.81
2,2, 5, 4, 0, 8,30.00,40.00,Saturday
7,22.2
8,98.1
2,2, 5, 4, 0, 8,40.00,50.00,Saturday
7,22.5
8,125.9
2,2, 5, 4, 0, 8,50.00,60.00,Saturday
7,23.2
8,128.0
2,2, 5, 4, 0, 9, 0.00,10.00,Saturday
7,23.8
8,126.5
2,2, 5, 4, 0, 9,10.00,20.00,Saturday
7,24.1
8,130.4
2,2, 5, 4, 0, 9,20.00,30.00,Saturday
7,24.8
8,166.9
2,2, 5, 4, 0, 9,30.00,40.00,Saturday
7,25.4
8,189.5
2,2, 5, 4, 0, 9,40.00,50.00,Saturday
7,25.8
8,196.5
2,2, 5, 4, 0, 9,50.00,60.00,Saturday
7,25.9
8,198.1
2,2, 5, 4, 0,10, 0.00,10.00,Saturday
7,25.2
8,179.5
2,2, 5, 4, 0,10,10.00,20.00,Saturday
7,25.0
8,182.2
2,2, 5, 4, 0,10,20.00,30.00,Saturday
7,25.5
8,209.1
2,2, 5, 4, 0,10,30.00,40.00,Saturday
7,25.4
8,209.5
2,2, 5, 4, 0,10,40.00,50.00,Saturday
7,25.6
8,236.4
2,2, 5, 4, 0,10,50.00,60.00,Saturday
7,25.9
8,263.6
2,2, 5, 4, 0,11, 0.00,10.00,Saturday
7,26.4
8,288.7
2,2, 5, 4, 0,11,10.00,20.00,Saturday
7,26.7
8,292.5
2,2, 5, 4, 0,11,20.00,30.00,Saturday
7,27.0
8,297.9
2,2, 5, 4, 0,11,30.00,40.00,Saturday
7,27.2
8,354.8
2,2, 5, 4, 0,11,40.00,50.00,Saturday
7,27.8
8,292.4
2,2, 5, 4, 0,11,50.00,60.00,Saturday
7,28.2
8,331.2
2,2, 5, 4, 0,12, 0.00,10.00,Saturday
7,28.6
8,343.6
2,2, 5, 4, 0,12,10.00,20.00,Saturday
7,29.5
8,329.2
2,2, 5, 4, 0,12,20.00,30.00,Saturday
7,30.2
8,284.0
2,2, 5, 4, 0,12,30.00,40.00,Saturday
7,30.2
8,260.2
2,2, 5, 4, 0,12,40.00,50.00,Saturday
7,30.2
8,294.9
2,2, 5, 4, 0,12,50.00,60.00,Saturday
7,30.0
8,300.6
2,2, 5, 4, 0,13, 0.00,10.00,Saturday
7,30.3
8,329.4
2,2, 5, 4, 0,13,10.00,20.00,Saturday
7,31.2
8,360.3
2,2, 5, 4, 0,13,20.00,30.00,Saturday
7,31.4
8,363.3
2,2, 5, 4, 0,13,30.00,40.00,Saturday
7,31.5
8,417.9
2,2, 5, 4, 0,13,40.00,50.00,Saturday
7,31.5
8,414.9
2,2, 5, 4, 0,13,50.00,60.00,Saturday
7,31.6
8,422.0
2,2, 5, 4, 0,14, 0.00,10.00,Saturday
7,32.2
8,413.6
2,2, 5, 4, 0,14,10.00,20.00,Saturday
7,32.2
8,401.0
2,2, 5, 4, 0,14,20.00,30.00,Saturday
7,32.1
8,379.2
2,2, 5, 4, 0,14,30.00,40.00,Saturday
7,32.1
8,340.0
2,2, 5, 4, 0,14,40.00,50.00,Saturday
7,32.1
8,299.1
2,2, 5, 4, 0,14,50.00,60.00,Saturday
7,32.7
8,385.1
2,2, 5, 4, 0,15, 0.00,10.00,Saturday
7,32.7
8,363.0
2,2, 5, 4, 0,15,10.00,20.00,Saturday
7,32.2
8,355.3
2,2, 5, 4, 0,15,20.00,30.00,Saturday
7,32.2
8,297.3
2,2, 5, 4, 0,15,30.00,40.00,Saturday
7,32.1
8,267.3
2,2, 5, 4, 0,15,40.00,50.00,Saturday
7,32.2
8,287.5
2,2, 5, 4, 0,15,50.00,60.00,Saturday
7,32.1
8,307.8
2,2, 5, 4, 0,16, 0.00,10.00,Saturday
7,32.9
8,288.2
2,2, 5, 4, 0,16,10.00,20.00,Saturday
7,33.7
8,271.9
2,2, 5, 4, 0,16,20.00,30.00,Saturday
7,33.5
8,265.2
2,2, 5, 4, 0,16,30.00,40.00,Saturday
7,33.7
8,261.1
2,2, 5, 4, 0,16,40.00,50.00,Saturday
7,33.4
8,232.8
2,2, 5, 4, 0,16,50.00,60.00,Saturday
7,32.8
8,239.7
2,2, 5, 4, 0,17, 0.00,10.00,Saturday
7,33.7
8,258.2
2,2, 5, 4, 0,17,10.00,20.00,Saturday
7,34.0
8,207.8
2,2, 5, 4, 0,17,20.00,30.00,Saturday
7,33.5
8,181.5
2,2, 5, 4, 0,17,30.00,40.00,Saturday
7,33.3
8,194.8
2,2, 5, 4, 0,17,40.00,50.00,Saturday
7,33.0
8,173.4
2,2, 5, 4, 0,17,50.00,60.00,Saturday
7,32.8
8,114.4
2,2, 5, 4, 0,18, 0.00,10.00,Saturday
7,32.6
8,105.8
2,2, 5, 4, 0,18,10.00,20.00,Saturday
7,32.6
8,118.1
2,2, 5, 4, 0,18,20.00,30.00,Saturday
7,32.7
8,142.1
2,2, 5, 4, 0,18,30.00,40.00,Saturday
7,32.8
8,151.8
2,2, 5, 4, 0,18,40.00,50.00,Saturday
7,33.0
8,125.3
2,2, 5, 4, 0,18,50.00,60.00,Saturday
7,32.6
8,86.7
2,2, 5, 4, 0,19, 0.00,10.00,Saturday
7,32.5
8,59.24
2,2, 5, 4, 0,19,10.00,20.00,Saturday
7,32.3
8,54.69
2,2, 5, 4, 0,19,20.00,30.00,Saturday
7,32.3
8,52.61
2,2, 5, 4, 0,19,30.00,40.00,Saturday
7,32.2
8,38.54
2,2, 5, 4, 0,19,40.00,50.00,Saturday
7,32.0
8,28.5
2,2, 5, 4, 0,19,50.00,60.00,Saturday
7,31.8
8,0.0
2,2, 5, 4, 0,20, 0.00,10.00,Saturday
7,31.4
8,0.0
2,2, 5, 4, 0,20,10.00,20.00,Saturday
7,31.0
8,0.0
2,2, 5, 4, 0,20,20.00,30.00,Saturday
7,30.5
8,0.0
2,2, 5, 4, 0,20,30.00,40.00,Saturday
7,30.0
8,0.0
2,2, 5, 4, 0,20,40.00,50.00,Saturday
7,29.6
8,0.0
2,2, 5, 4, 0,20,50.00,60.00,Saturday
7,29.5
8,0.0
2,2, 5, 4, 0,21, 0.00,10.00,Saturday
7,29.2
8,0.0
2,2, 5, 4, 0,21,10.00,20.00,Saturday
7,29.1
8,0.0
2,2, 5, 4, 0,21,20.00,30.00,Saturday
7,28.9
8,0.0
2,2, 5, 4, 0,21,30.00,40.00,Saturday
7,28.9
8,0.0
2,2, 5, 4, 0,21,40.00,50.00,Saturday
7,28.8
8,0.0
2,2, 5, 4, 0,21,50.00,60.00,Saturday
7,28.4
8,0.0
2,2, 5, 4, 0,22, 0.00,10.00,Saturday
7,28.0
8,0.0
2,2, 5, 4, 0,22,10.00,20.00,Saturday
7,28.0
8,0.0
2,2, 5, 4, 0,22,20.00,30.00,Saturday
7,27.5
8,0.0
2,2, 5, 4, 0,22,30.00,40.00,Saturday
7,27.9
8,0.0
2,2, 5, 4, 0,22,40.00,50.00,Saturday
7,27.9
8,0.0
2,2, 5, 4, 0,22,50.00,60.00,Saturday
7,27.8
8,0.0
2,2, 5, 4, 0,23, 0.00,10.00,Saturday
7,27.6
8,0.0
2,2, 5, 4, 0,23,10.00,20.00,Saturday
7,27.4
8,0.0
2,2, 5, 4, 0,23,20.00,30.00,Saturday
7,27.1
8,0.0
2,2, 5, 4, 0,23,30.00,40.00,Saturday
7,26.7
8,0.0
2,2, 5, 4, 0,23,40.00,50.00,Saturday
7,26.5
8,0.0
2,2, 5, 4, 0,23,50.00,60.00,Saturday
7,26.8
8,0.0
2,2, 5, 4, 0,24, 0.00,10.00,Saturday
7,27.0
8,0.0
2,2, 5, 4, 0,24,10.00,20.00,Saturday
7,26.9
8,0.0
2,2, 5, 4, 0,24,20.00,30.00,Saturday
7,26.9
8,0.0
2,2, 5, 4, 0,24,30.00,40.00,Saturday
7,26.8
8,0.0
2,2, 5, 4, 0,24,40.00,50.00,Saturday
7,26.2
8,0.0
2,2, 5, 4, 0,24,50.00,60.00,Saturday
7,26.2
8,0.0
2,3, 5, 5, 0, 1, 0.00,10.00,Sunday
7,25.9
8,0.0
2,3, 5, 5, 0, 1,10.00,20.00,Sunday
7,26.1
8,0.0
2,3, 5, 5, 0, 1,20.00,30.00,Sunday
7,26.1
8,0.0
2,3, 5, 5, 0, 1,30.00,40.00,Sunday
7,26.2
8,0.0
2,3, 5, 5, 0, 1,40.00,50.00,Sunday
7,25.8
8,0.0
2,3, 5, 5, 0, 1,50.00,60.00,Sunday
7,25.9
8,0.0
2,3, 5, 5, 0, 2, 0.00,10.00,Sunday
7,25.7
8,0.0
2,3, 5, 5, 0, 2,10.00,20.00,Sunday
7,25.3
8,0.0
2,3, 5, 5, 0, 2,20.00,30.00,Sunday
7,24.9
8,0.0
2,3, 5, 5, 0, 2,30.00,40.00,Sunday
7,24.1
8,0.0
2,3, 5, 5, 0, 2,40.00,50.00,Sunday
7,23.7
8,0.0
2,3, 5, 5, 0, 2,50.00,60.00,Sunday
7,23.4
8,0.0
2,3, 5, 5, 0, 3, 0.00,10.00,Sunday
7,23.4
8,0.0
2,3, 5, 5, 0, 3,10.00,20.00,Sunday
7,23.4
8,0.0
2,3, 5, 5, 0, 3,20.00,30.00,Sunday
7,23.2
8,0.0
2,3, 5, 5, 0, 3,30.00,40.00,Sunday
7,22.8
8,0.0
2,3, 5, 5, 0, 3,40.00,50.00,Sunday
7,22.7
8,0.0
2,3, 5, 5, 0, 3,50.00,60.00,Sunday
7,22.4
8,0.0
2,3, 5, 5, 0, 4, 0.00,10.00,Sunday
7,22.4
8,0.0
2,3, 5, 5, 0, 4,10.00,20.00,Sunday
7,22.7
8,0.0
2,3, 5, 5, 0, 4,20.00,30.00,Sunday
7,22.5
8,0.0
2,3, 5, 5, 0, 4,30.00,40.00,Sunday
7,22.1
8,0.0
2,3, 5, 5, 0, 4,40.00,50.00,Sunday
7,22.3
8,0.0
2,3, 5, 5, 0, 4,50.00,60.00,Sunday
7,22.5
8,0.0
2,3, 5, 5, 0, 5, 0.00,10.00,Sunday
7,22.9
8,0.0
2,3, 5, 5, 0, 5,10.00,20.00,Sunday
7,23.1
8,0.0
2,3, 5, 5, 0, 5,20.00,30.00,Sunday
7,22.5
8,0.0
2,3, 5, 5, 0, 5,30.00,40.00,Sunday
7,22.4
8,0.0
2,3, 5, 5, 0, 5,40.00,50.00,Sunday
7,22.5
8,0.0
2,3, 5, 5, 0, 5,50.00,60.00,Sunday
7,22.3
8,0.0
2,3, 5, 5, 0, 6, 0.00,10.00,Sunday
7,22.0
8,0.0
2,3, 5, 5, 0, 6,10.00,20.00,Sunday
7,21.8
8,0.0
2,3, 5, 5, 0, 6,20.00,30.00,Sunday
7,22.0
8,0.0
2,3, 5, 5, 0, 6,30.00,40.00,Sunday
7,21.8
8,0.0
2,3, 5, 5, 0, 6,40.00,50.00,Sunday
7,21.6
8,0.0
2,3, 5, 5, 0, 6,50.00,60.00,Sunday
7,21.4
8,0.0
2,3, 5, 5, 0, 7, 0.00,10.00,Sunday
7,21.2
8,0.0
2,3, 5, 5, 0, 7,10.00,20.00,Sunday
7,21.1
8,0.0
2,3, 5, 5, 0, 7,20.00,30.00,Sunday
7,21.0
8,1.985
2,3, 5, 5, 0, 7,30.00,40.00,Sunday
7,21.3
8,8.71
2,3, 5, 5, 0, 7,40.00,50.00,Sunday
7,21.4
8,18.98
2,3, 5, 5, 0, 7,50.00,60.00,Sunday
7,21.8
8,31.15
2,3, 5, 5, 0, 8, 0.00,10.00,Sunday
7,21.2
8,42.2
2,3, 5, 5, 0, 8,10.00,20.00,Sunday
7,21.2
8,54.66
2,3, 5, 5, 0, 8,20.00,30.00,Sunday
7,21.7
8,67.62
2,3, 5, 5, 0, 8,30.00,40.00,Sunday
7,22.5
8,79.67
2,3, 5, 5, 0, 8,40.00,50.00,Sunday
7,23.2
8,90.8
2,3, 5, 5, 0, 8,50.00,60.00,Sunday
7,23.6
8,101.2
2,3, 5, 5, 0, 9, 0.00,10.00,Sunday
7,24.7
8,111.7
2,3, 5, 5, 0, 9,10.00,20.00,Sunday
7,25.6
8,123.4
2,3, 5, 5, 0, 9,20.00,30.00,Sunday
7,26.1
8,132.9
2,3, 5, 5, 0, 9,30.00,40.00,Sunday
7,26.6
8,143.6
2,3, 5, 5, 0, 9,40.00,50.00,Sunday
7,26.7
8,154.5
2,3, 5, 5, 0, 9,50.00,60.00,Sunday
7,26.5
8,170.6
2,3, 5, 5, 0,10, 0.00,10.00,Sunday
7,27.0
8,194.7
2,3, 5, 5, 0,10,10.00,20.00,Sunday
7,27.3
8,217.7
2,3, 5, 5, 0,10,20.00,30.00,Sunday
7,27.5
8,247.7
2,3, 5, 5, 0,10,30.00,40.00,Sunday
7,27.5
8,267.1
2,3, 5, 5, 0,10,40.00,50.00,Sunday
7,27.6
8,289.7
2,3, 5, 5, 0,10,50.00,60.00,Sunday
7,27.4
8,295.9
2,3, 5, 5, 0,11, 0.00,10.00,Sunday
7,27.2
8,304.1
2,3, 5, 5, 0,11,10.00,20.00,Sunday
7,28.0
8,322.3
2,3, 5, 5, 0,11,20.00,30.00,Sunday
7,28.2
8,316.3
2,3, 5, 5, 0,11,30.00,40.00,Sunday
7,28.3
8,319.6
2,3, 5, 5, 0,11,40.00,50.00,Sunday
7,28.8
8,325.9
2,3, 5, 5, 0,11,50.00,60.00,Sunday
7,28.7
8,334.3
2,3, 5, 5, 0,12, 0.00,10.00,Sunday
7,28.6
8,346.9
2,3, 5, 5, 0,12,10.00,20.00,Sunday
7,29.0
8,323.6
2,3, 5, 5, 0,12,20.00,30.00,Sunday
7,28.9
8,291.8
2,3, 5, 5, 0,12,30.00,40.00,Sunday
7,29.6
8,268.6
2,3, 5, 5, 0,12,40.00,50.00,Sunday
7,30.5
8,269.1
2,3, 5, 5, 0,12,50.00,60.00,Sunday
7,30.5
8,282.4
2,3, 5, 5, 0,13, 0.00,10.00,Sunday
7,29.6
8,293.1
2,3, 5, 5, 0,13,10.00,20.00,Sunday
7,30.1
8,296.6
2,3, 5, 5, 0,13,20.00,30.00,Sunday
7,31.0
8,296.0
2,3, 5, 5, 0,13,30.00,40.00,Sunday
7,30.6
8,300.7
2,3, 5, 5, 0,13,40.00,50.00,Sunday
7,31.3
8,301.3
2,3, 5, 5, 0,13,50.00,60.00,Sunday
7,31.3
8,269.8
2,3, 5, 5, 0,14, 0.00,10.00,Sunday
7,31.6
8,255.6
2,3, 5, 5, 0,14,10.00,20.00,Sunday
7,32.5
8,234.4
2,3, 5, 5, 0,14,20.00,30.00,Sunday
7,32.8
8,243.6
2,3, 5, 5, 0,14,30.00,40.00,Sunday
7,32.8
8,245.9
2,3, 5, 5, 0,14,40.00,50.00,Sunday
7,33.1
8,249.9
2,3, 5, 5, 0,14,50.00,60.00,Sunday
7,32.7
8,283.3
2,3, 5, 5, 0,15, 0.00,10.00,Sunday
7,33.7
8,258.3
2,3, 5, 5, 0,15,10.00,20.00,Sunday
7,33.0
8,220.1
2,3, 5, 5, 0,15,20.00,30.00,Sunday
7,33.3
8,206.2
2,3, 5, 5, 0,15,30.00,40.00,Sunday
7,33.5
8,221.9
2,3, 5, 5, 0,15,40.00,50.00,Sunday
7,34.0
8,252.5
2,3, 5, 5, 0,15,50.00,60.00,Sunday
7,34.4
8,242.7
2,3, 5, 5, 0,16, 0.00,10.00,Sunday
7,34.5
8,244.1
2,3, 5, 5, 0,16,10.00,20.00,Sunday
7,34.4
8,259.0
2,3, 5, 5, 0,16,20.00,30.00,Sunday
7,34.2
8,248.2
2,3, 5, 5, 0,16,30.00,40.00,Sunday
7,34.4
8,225.3
2,3, 5, 5, 0,16,40.00,50.00,Sunday
7,34.2
8,215.6
2,3, 5, 5, 0,16,50.00,60.00,Sunday
7,34.3
8,215.9
2,3, 5, 5, 0,17, 0.00,10.00,Sunday
7,34.2
8,205.6
2,3, 5, 5, 0,17,10.00,20.00,Sunday
7,34.6
8,225.0
2,3, 5, 5, 0,17,20.00,30.00,Sunday
7,34.8
8,186.2
2,3, 5, 5, 0,17,30.00,40.00,Sunday
7,34.1
8,158.8
2,3, 5, 5, 0,17,40.00,50.00,Sunday
7,33.8
8,118.3
2,3, 5, 5, 0,17,50.00,60.00,Sunday
7,33.6
8,132.4
2,3, 5, 5, 0,18, 0.00,10.00,Sunday
7,33.6
8,116.3
2,3, 5, 5, 0,18,10.00,20.00,Sunday
7,33.8
8,136.9
2,3, 5, 5, 0,18,20.00,30.00,Sunday
7,34.0
8,165.8
2,3, 5, 5, 0,18,30.00,40.00,Sunday
7,33.8
8,124.7
2,3, 5, 5, 0,18,40.00,50.00,Sunday
7,33.8
8,106.0
2,3, 5, 5, 0,18,50.00,60.00,Sunday
7,33.7
8,90.5
2,3, 5, 5, 0,19, 0.00,10.00,Sunday
7,33.3
8,81.8
2,3, 5, 5, 0,19,10.00,20.00,Sunday
7,33.2
8,72.24
2,3, 5, 5, 0,19,20.00,30.00,Sunday
7,33.4
8,58.73
2,3, 5, 5, 0,19,30.00,40.00,Sunday
7,33.5
8,42.29
2,3, 5, 5, 0,19,40.00,50.00,Sunday
7,33.1
8,32.38
2,3, 5, 5, 0,19,50.00,60.00,Sunday
7,32.6
8,0.0
2,3, 5, 5, 0,20, 0.00,10.00,Sunday
7,32.4
8,0.0
2,3, 5, 5, 0,20,10.00,20.00,Sunday
7,32.3
8,0.0
2,3, 5, 5, 0,20,20.00,30.00,Sunday
7,32.1
8,0.0
2,3, 5, 5, 0,20,30.00,40.00,Sunday
7,32.0
8,0.0
2,3, 5, 5, 0,20,40.00,50.00,Sunday
7,31.6
8,0.0
2,3, 5, 5, 0,20,50.00,60.00,Sunday
7,31.3
8,0.0
2,3, 5, 5, 0,21, 0.00,10.00,Sunday
7,31.2
8,0.0
2,3, 5, 5, 0,21,10.00,20.00,Sunday
7,30.8
8,0.0
2,3, 5, 5, 0,21,20.00,30.00,Sunday
7,30.4
8,0.0
2,3, 5, 5, 0,21,30.00,40.00,Sunday
7,30.0
8,0.0
2,3, 5, 5, 0,21,40.00,50.00,Sunday
7,29.6
8,0.0
2,3, 5, 5, 0,21,50.00,60.00,Sunday
7,29.2
8,0.0
2,3, 5, 5, 0,22, 0.00,10.00,Sunday
7,28.8
8,0.0
2,3, 5, 5, 0,22,10.00,20.00,Sunday
7,28.5
8,0.0
2,3, 5, 5, 0,22,20.00,30.00,Sunday
7,28.4
8,0.0
2,3, 5, 5, 0,22,30.00,40.00,Sunday
7,28.3
8,0.0
2,3, 5, 5, 0,22,40.00,50.00,Sunday
7,28.1
8,0.0
2,3, 5, 5, 0,22,50.00,60.00,Sunday
7,28.0
8,0.0
2,3, 5, 5, 0,23, 0.00,10.00,Sunday
7,28.1
8,0.0
2,3, 5, 5, 0,23,10.00,20.00,Sunday
7,27.7
8,0.0
2,3, 5, 5, 0,23,20.00,30.00,Sunday
7,26.9
8,0.0
2,3, 5, 5, 0,23,30.00,40.00,Sunday
7,26.8
8,0.0
2,3, 5, 5, 0,23,40.00,50.00,Sunday
7,26.7
8,0.0
2,3, 5, 5, 0,23,50.00,60.00,Sunday
7,26.5
8,0.0
2,3, 5, 5, 0,24, 0.00,10.00,Sunday
7,26.3
8,0.0
2,3, 5, 5, 0,24,10.00,20.00,Sunday
7,25.9
8,0.0
2,3, 5, 5, 0,24,20.00,30.00,Sunday
7,25.1
8,0.0
2,3, 5, 5, 0,24,30.00,40.00,Sunday
7,25.4
8,0.0
2,3, 5, 5, 0,24,40.00,50.00,Sunday
7,25.3
8,0.0
2,3, 5, 5, 0,24,50.00,60.00,Sunday
7,25.0
8,0.0
2,4, 5, 6, 0, 1, 0.00,10.00,Monday
7,24.8
8,0.0
2,4, 5, 6, 0, 1,10.00,20.00,Monday
7,24.6
8,0.0
2,4, 5, 6, 0, 1,20.00,30.00,Monday
7,24.4
8,0.0
2,4, 5, 6, 0, 1,30.00,40.00,Monday
7,24.4
8,0.0
2,4, 5, 6, 0, 1,40.00,50.00,Monday
7,24.0
8,0.0
2,4, 5, 6, 0, 1,50.00,60.00,Monday
7,24.2
8,0.0
2,4, 5, 6, 0, 2, 0.00,10.00,Monday
7,24.1
8,0.0
2,4, 5, 6, 0, 2,10.00,20.00,Monday
7,23.9
8,0.0
2,4, 5, 6, 0, 2,20.00,30.00,Monday
7,23.7
8,0.0
2,4, 5, 6, 0, 2,30.00,40.00,Monday
7,23.4
8,0.0
2,4, 5, 6, 0, 2,40.00,50.00,Monday
7,23.0
8,0.0
2,4, 5, 6, 0, 2,50.00,60.00,Monday
7,22.9
8,0.0
2,4, 5, 6, 0, 3, 0.00,10.00,Monday
7,22.4
8,0.0
2,4, 5, 6, 0, 3,10.00,20.00,Monday
7,22.1
8,0.0
2,4, 5, 6, 0, 3,20.00,30.00,Monday
7,22.2
8,0.0
2,4, 5, 6, 0, 3,30.00,40.00,Monday
7,21.9
8,0.0
2,4, 5, 6, 0, 3,40.00,50.00,Monday
7,21.8
8,0.0
2,4, 5, 6, 0, 3,50.00,60.00,Monday
7,21.8
8,0.0
2,4, 5, 6, 0, 4, 0.00,10.00,Monday
7,21.6
8,0.0
2,4, 5, 6, 0, 4,10.00,20.00,Monday
7,21.4
8,0.0
2,4, 5, 6, 0, 4,20.00,30.00,Monday
7,21.5
8,0.0
2,4, 5, 6, 0, 4,30.00,40.00,Monday
7,21.6
8,0.0
2,4, 5, 6, 0, 4,40.00,50.00,Monday
7,21.9
8,0.0
2,4, 5, 6, 0, 4,50.00,60.00,Monday
7,21.8
8,0.0
2,4, 5, 6, 0, 5, 0.00,10.00,Monday
7,22.0
8,0.0
2,4, 5, 6, 0, 5,10.00,20.00,Monday
7,22.3
8,0.0
2,4, 5, 6, 0, 5,20.00,30.00,Monday
7,22.4
8,0.0
2,4, 5, 6, 0, 5,30.00,40.00,Monday
7,22.1
8,0.0
2,4, 5, 6, 0, 5,40.00,50.00,Monday
7,21.8
8,0.0
2,4, 5, 6, 0, 5,50.00,60.00,Monday
7,21.8
8,0.0
2,4, 5, 6, 0, 6, 0.00,10.00,Monday
7,21.7
8,0.0
2,4, 5, 6, 0, 6,10.00,20.00,Monday
7,21.6
8,0.0
2,4, 5, 6, 0, 6,20.00,30.00,Monday
7,21.6
8,0.0
2,4, 5, 6, 0, 6,30.00,40.00,Monday
7,21.2
8,0.0
2,4, 5, 6, 0, 6,40.00,50.00,Monday
7,21.1
8,0.0
2,4, 5, 6, 0, 6,50.00,60.00,Monday
7,20.8
8,0.0
2,4, 5, 6, 0, 7, 0.00,10.00,Monday
7,20.6
8,0.0
2,4, 5, 6, 0, 7,10.00,20.00,Monday
7,20.5
8,0.057
2,4, 5, 6, 0, 7,20.00,30.00,Monday
7,20.3
8,2.34
2,4, 5, 6, 0, 7,30.00,40.00,Monday
7,20.9
8,11.74
2,4, 5, 6, 0, 7,40.00,50.00,Monday
7,20.8
8,20.92
2,4, 5, 6, 0, 7,50.00,60.00,Monday
7,20.6
8,31.14
2,4, 5, 6, 0, 8, 0.00,10.00,Monday
7,20.8
8,44.19
2,4, 5, 6, 0, 8,10.00,20.00,Monday
7,21.0
8,68.19
2,4, 5, 6, 0, 8,20.00,30.00,Monday
7,21.5
8,75.38
2,4, 5, 6, 0, 8,30.00,40.00,Monday
7,22.0
8,78.61
2,4, 5, 6, 0, 8,40.00,50.00,Monday
7,22.4
8,98.5
2,4, 5, 6, 0, 8,50.00,60.00,Monday
7,23.3
8,114.3
2,4, 5, 6, 0, 9, 0.00,10.00,Monday
7,24.4
8,125.7
2,4, 5, 6, 0, 9,10.00,20.00,Monday
7,24.7
8,124.5
2,4, 5, 6, 0, 9,20.00,30.00,Monday
7,25.0
8,130.0
2,4, 5, 6, 0, 9,30.00,40.00,Monday
7,25.2
8,145.1
2,4, 5, 6, 0, 9,40.00,50.00,Monday
7,25.3
8,148.7
2,4, 5, 6, 0, 9,50.00,60.00,Monday
7,25.5
8,155.9
2,4, 5, 6, 0,10, 0.00,10.00,Monday
7,26.0
8,177.8
2,4, 5, 6, 0,10,10.00,20.00,Monday
7,26.3
8,177.9
2,4, 5, 6, 0,10,20.00,30.00,Monday
7,26.3
8,215.8
2,4, 5, 6, 0,10,30.00,40.00,Monday
7,26.8
8,224.7
2,4, 5, 6, 0,10,40.00,50.00,Monday
7,26.9
8,240.4
2,4, 5, 6, 0,10,50.00,60.00,Monday
7,27.5
8,241.1
2,4, 5, 6, 0,11, 0.00,10.00,Monday
7,27.5
8,244.8
2,4, 5, 6, 0,11,10.00,20.00,Monday
7,27.8
8,251.3
2,4, 5, 6, 0,11,20.00,30.00,Monday
7,28.0
8,246.6
2,4, 5, 6, 0,11,30.00,40.00,Monday
7,27.4
8,274.8
2,4, 5, 6, 0,11,40.00,50.00,Monday
7,27.7
8,287.0
2,4, 5, 6, 0,11,50.00,60.00,Monday
7,28.6
8,277.9
2,4, 5, 6, 0,12, 0.00,10.00,Monday
7,28.4
8,255.9
2,4, 5, 6, 0,12,10.00,20.00,Monday
7,29.5
8,249.0
2,4, 5, 6, 0,12,20.00,30.00,Monday
7,29.8
8,159.6
2,4, 5, 6, 0,12,30.00,40.00,Monday
7,29.8
8,156.0
2,4, 5, 6, 0,12,40.00,50.00,Monday
7,30.5
8,255.2
2,4, 5, 6, 0,12,50.00,60.00,Monday
7,30.3
8,251.9
2,4, 5, 6, 0,13, 0.00,10.00,Monday
7,30.7
8,240.2
2,4, 5, 6, 0,13,10.00,20.00,Monday
7,30.7
8,231.3
2,4, 5, 6, 0,13,20.00,30.00,Monday
7,30.9
8,224.1
2,4, 5, 6, 0,13,30.00,40.00,Monday
7,31.1
8,230.2
2,4, 5, 6, 0,13,40.00,50.00,Monday
7,31.3
8,228.2
2,4, 5, 6, 0,13,50.00,60.00,Monday
7,31.1
8,235.3
2,4, 5, 6, 0,14, 0.00,10.00,Monday
7,31.1
8,241.5
2,4, 5, 6, 0,14,10.00,20.00,Monday
7,32.2
8,259.8
2,4, 5, 6, 0,14,20.00,30.00,Monday
7,32.4
8,297.7
2,4, 5, 6, 0,14,30.00,40.00,Monday
7,32.0
8,310.1
2,4, 5, 6, 0,14,40.00,50.00,Monday
7,32.3
8,318.5
2,4, 5, 6, 0,14,50.00,60.00,Monday
7,32.7
8,325.4
2,4, 5, 6, 0,15, 0.00,10.00,Monday
7,32.8
8,311.3
2,4, 5, 6, 0,15,10.00,20.00,Monday
7,33.0
8,333.9
2,4, 5, 6, 0,15,20.00,30.00,Monday
7,32.9
8,346.1
2,4, 5, 6, 0,15,30.00,40.00,Monday
7,33.3
8,338.7
2,4, 5, 6, 0,15,40.00,50.00,Monday
7,32.8
8,321.9
2,4, 5, 6, 0,15,50.00,60.00,Monday
7,32.6
8,313.2
2,4, 5, 6, 0,16, 0.00,10.00,Monday
7,32.9
8,308.2
2,4, 5, 6, 0,16,10.00,20.00,Monday
7,33.0
8,303.9
2,4, 5, 6, 0,16,20.00,30.00,Monday
7,33.7
8,296.9
2,4, 5, 6, 0,16,30.00,40.00,Monday
7,33.4
8,294.7
2,4, 5, 6, 0,16,40.00,50.00,Monday
7,33.0
8,291.6
2,4, 5, 6, 0,16,50.00,60.00,Monday
7,33.2
8,272.8
2,4, 5, 6, 0,17, 0.00,10.00,Monday
7,33.5
8,254.0
2,4, 5, 6, 0,17,10.00,20.00,Monday
7,33.5
8,248.0
2,4, 5, 6, 0,17,20.00,30.00,Monday
7,33.7
8,224.3
2,4, 5, 6, 0,17,30.00,40.00,Monday
7,33.8
8,195.1
2,4, 5, 6, 0,17,40.00,50.00,Monday
7,33.6
8,197.1
2,4, 5, 6, 0,17,50.00,60.00,Monday
7,33.8
8,183.9
2,4, 5, 6, 0,18, 0.00,10.00,Monday
7,34.3
8,163.5
2,4, 5, 6, 0,18,10.00,20.00,Monday
7,34.0
8,176.6
2,4, 5, 6, 0,18,20.00,30.00,Monday
7,33.3
8,150.9
2,4, 5, 6, 0,18,30.00,40.00,Monday
7,33.8
8,150.9
2,4, 5, 6, 0,18,40.00,50.00,Monday
7,33.5
8,135.0
2,4, 5, 6, 0,18,50.00,60.00,Monday
7,33.5
8,106.9
2,4, 5, 6, 0,19, 0.00,10.00,Monday
7,33.3
8,101.6
2,4, 5, 6, 0,19,10.00,20.00,Monday
7,33.4
8,97.3
2,4, 5, 6, 0,19,20.00,30.00,Monday
7,33.7
8,75.72
2,4, 5, 6, 0,19,30.00,40.00,Monday
7,33.4
8,46.09
2,4, 5, 6, 0,19,40.00,50.00,Monday
7,33.2
8,36.5
2,4, 5, 6, 0,19,50.00,60.00,Monday
7,33.0
8,0.0
2,4, 5, 6, 0,20, 0.00,10.00,Monday
7,32.7
8,0.0
2,4, 5, 6, 0,20,10.00,20.00,Monday
7,32.4
8,0.0
2,4, 5, 6, 0,20,20.00,30.00,Monday
7,32.0
8,0.0
2,4, 5, 6, 0,20,30.00,40.00,Monday
7,31.7
8,0.0
2,4, 5, 6, 0,20,40.00,50.00,Monday
7,31.5
8,0.0
2,4, 5, 6, 0,20,50.00,60.00,Monday
7,31.2
8,0.0
2,4, 5, 6, 0,21, 0.00,10.00,Monday
7,30.9
8,0.0
2,4, 5, 6, 0,21,10.00,20.00,Monday
7,30.5
8,0.0
2,4, 5, 6, 0,21,20.00,30.00,Monday
7,30.3
8,0.0
2,4, 5, 6, 0,21,30.00,40.00,Monday
7,30.1
8,0.0
2,4, 5, 6, 0,21,40.00,50.00,Monday
7,30.0
8,0.0
2,4, 5, 6, 0,21,50.00,60.00,Monday
7,29.7
8,0.0
2,4, 5, 6, 0,22, 0.00,10.00,Monday
7,29.4
8,0.0
2,4, 5, 6, 0,22,10.00,20.00,Monday
7,28.1
8,0.0
2,4, 5, 6, 0,22,20.00,30.00,Monday
7,28.1
8,0.0
2,4, 5, 6, 0,22,30.00,40.00,Monday
7,28.3
8,0.0
2,4, 5, 6, 0,22,40.00,50.00,Monday
7,27.7
8,0.0
2,4, 5, 6, 0,22,50.00,60.00,Monday
7,26.6
8,0.0
2,4, 5, 6, 0,23, 0.00,10.00,Monday
7,26.4
8,0.0
2,4, 5, 6, 0,23,10.00,20.00,Monday
7,26.6
8,0.0
2,4, 5, 6, 0,23,20.00,30.00,Monday
7,26.7
8,0.0
2,4, 5, 6, 0,23,30.00,40.00,Monday
7,26.1
8,0.0
2,4, 5, 6, 0,23,40.00,50.00,Monday
7,25.8
8,0.0
2,4, 5, 6, 0,23,50.00,60.00,Monday
7,26.5
8,0.0
2,4, 5, 6, 0,24, 0.00,10.00,Monday
7,26.8
8,0.0
2,4, 5, 6, 0,24,10.00,20.00,Monday
7,26.2
8,0.0
2,4, 5, 6, 0,24,20.00,30.00,Monday
7,24.8
8,0.0
2,4, 5, 6, 0,24,30.00,40.00,Monday
7,24.9
8,0.0
2,4, 5, 6, 0,24,40.00,50.00,Monday
7,25.3
8,0.0
2,4, 5, 6, 0,24,50.00,60.00,Monday
7,24.3
8,0.0
2,5, 5, 7, 0, 1, 0.00,10.00,Tuesday
7,23.7
8,0.0
2,5, 5, 7, 0, 1,10.00,20.00,Tuesday
7,24.3
8,0.0
2,5, 5, 7, 0, 1,20.00,30.00,Tuesday
7,24.4
8,0.0
2,5, 5, 7, 0, 1,30.00,40.00,Tuesday
7,24.3
8,0.0
2,5, 5, 7, 0, 1,40.00,50.00,Tuesday
7,24.2
8,0.0
2,5, 5, 7, 0, 1,50.00,60.00,Tuesday
7,23.9
8,0.0
2,5, 5, 7, 0, 2, 0.00,10.00,Tuesday
7,23.5
8,0.0
2,5, 5, 7, 0, 2,10.00,20.00,Tuesday
7,23.5
8,0.0
2,5, 5, 7, 0, 2,20.00,30.00,Tuesday
7,23.5
8,0.0
2,5, 5, 7, 0, 2,30.00,40.00,Tuesday
7,23.5
8,0.0
2,5, 5, 7, 0, 2,40.00,50.00,Tuesday
7,23.5
8,0.0
2,5, 5, 7, 0, 2,50.00,60.00,Tuesday
7,23.4
8,0.0
2,5, 5, 7, 0, 3, 0.00,10.00,Tuesday