Program Version,EnergyPlus, Version 9.5.0-de239b2e5f, YMD=2021.11.28 17:40
1,5,Environment Title[],Latitude[deg],Longitude[deg],Time Zone[],Elevation[m]
2,8,Day of Simulation[],Month[],Day of Month[],DST Indicator[1=yes 0=no],Hour[],StartMinute[],EndMinute[],DayType
3,5,Cumulative Day of Simulation[],Month[],Day of Month[],DST Indicator[1=yes 0=no],DayType  ! When Daily Report Variables Requested
4,2,Cumulative Days of Simulation[],Month[]  ! When Monthly Report Variables Requested
5,1,Cumulative Days of Simulation[] ! When Run Period Report Variables Requested
6,1,Calendar Year of Simulation[] ! When Annual Report Variables Requested
7,1,Environment,Site Outdoor Air Drybulb Temperature [C] !TimeStep
8,1,ESTE,Surface Outside Face Incident Solar Radiation Rate per Area [W/m2] !TimeStep
9,1,NORTE,Surface Outside Face Incident Solar Radiation Rate per Area [W/m2] !TimeStep
10,1,OESTE,Surface Outside Face Incident Solar Radiation Rate per Area [W/m2] !TimeStep
11,1,SUR,Surface Outside Face Incident Solar Radiation Rate per Area [W/m2] !TimeStep
12,1,TECHO,Surface Outside Face Incident Solar Radiation Rate per Area [W/m2] !TimeStep
End of Data Dictionary
1,RUN PERIOD 1,  18.85, -99.14,  -6.00,1280.00
2,1, 3, 5, 0, 1, 0.00,10.00,Tuesday
7,23.0
8,0.0
9,0.0
10,0.0
11,0.0
12,0.0
2,1, 3, 5, 0, 1,10.00,20.00,Tuesday
7,23.0
8,0.0
9,0.0
10,0.0
11,0.0
12,0.0
2,1, 3, 5, 0, 1,20.00,30.00,Tuesday
7,23.0
8,0.0
9,0.0
10,0.0
11,0.0
12,0.0
2,1, 3, 5, 0, 1,30.00,40.00,Tuesday
7,22.8
8,0.0
9,0.0
10,0.0
11,0.0
12,0.0
2,1, 3, 5, 0, 1,40.00,50.00,Tuesday
7,22.7
8,0.0
9,0.0
10,0.0
11,0.0
12,0.0
2,1, 3, 5, 0, 1,50.00,60.00,Tuesday
7,22.6
8,0.0
9,0.0
10,0.0
11,0.0
12,0.0
2,1, 3, 5, 0, 2, 0.00,10.00,Tuesday
7,22.5
8,0.0
9,0.0
10,0.0
11,0.0
12,0.0
2,1, 3, 5, 0, 2,10.00,20.00,Tuesday
7,22.4
8,0.0
9,0.0
10,0.0
11,0.0
12,0.0
2,1, 3, 5, 0, 2,20.00,30.00,Tuesday
7,22.3
8,0.0
9,0.0
10,0.0
11,0.0
12,0.0
2,1, 3, 5, 0, 2,30.00,40.00,Tuesday
7,22.4
8,0.0
9,0.0
10,0.0
11,0.0
12,0.0
2,1, 3, 5, 0, 2,40.00,50.00,Tuesday
7,22.5
8,0.0
9,0.0
10,0.0
11,0.0
12,0.0
2,1, 3, 5, 0, 2,50.00,60.00,Tuesday
7,22.3
8,0.0
9,0.0
10,0.0
11,0.0
12,0.0
2,1, 3, 5, 0, 3, 0.00,10.00,Tuesday
7,22.1
8,0.0
9,0.0
10,0.0
11,0.0
12,0.0
2,1, 3, 5, 0, 3,10.00,20.00,Tuesday
7,22.0
8,0.0
9,0.0
10,0.0
11,0.0
12,0.0
2,1, 3, 5, 0, 3,20.00,30.00,Tuesday
7,22.0
8,0.0
9,0.0
10,0.0
11,0.0
12,0.0
2,1, 3, 5, 0, 3,30.00,40.00,Tuesday
7,21.9
8,0.0
9,0.0
10,0.0
11,0.0
12,0.0
2,1, 3, 5, 0, 3,40.00,50.00,Tuesday
7,21.9
8,0.0
9,0.0
10,0.0
11,0.0
12,0.0
2,1, 3, 5, 0, 3,50.00,60.00,Tuesday
7,21.7
8,0.0
9,0.0
10,0.0
11,0.0
12,0.0
2,1, 3, 5, 0, 4, 0.00,10.00,Tuesday
7,21.7
8,0.0
9,0.0
10,0.0
11,0.0
12,0.0
2,1, 3, 5, 0, 4,10.00,20.00,Tuesday
7,21.8
8,0.0
9,0.0
10,0.0
11,0.0
12,0.0
2,1, 3, 5, 0, 4,20.00,30.00,Tuesday
7,21.5
8,0.0
9,0.0
10,0.0
11,0.0
12,0.0
2,1, 3, 5, 0, 4,30.00,40.00,Tuesday
7,21.4
8,0.0
9,0.0
10,0.0
11,0.0
12,0.0
2,1, 3, 5, 0, 4,40.00,50.00,Tuesday
7,21.1
8,0.0
9,0.0
10,0.0
11,0.0
12,0.0
2,1, 3, 5, 0, 4,50.00,60.00,Tuesday
7,21.2
8,0.0
9,0.0
10,0.0
11,0.0
12,0.0
2,1, 3, 5, 0, 5, 0.00,10.00,Tuesday
7,21.0
8,0.0
9,0.0
10,0.0
11,0.0
12,0.0
2,1, 3, 5, 0, 5,10.00,20.00,Tuesday
7,20.8
8,0.0
9,0.0
10,0.0
11,0.0
12,0.0
2,1, 3, 5, 0, 5,20.00,30.00,Tuesday
7,20.9
8,0.0
9,0.0
10,0.0
11,0.0
12,0.0
2,1, 3, 5, 0, 5,30.00,40.00,Tuesday
7,20.8
8,0.0
9,0.0
10,0.0
11,0.0
12,0.0
2,1, 3, 5, 0, 5,40.00,50.00,Tuesday
7,21.1
8,0.0
9,0.0
10,0.0
11,0.0
12,0.0
2,1, 3, 5, 0, 5,50.00,60.00,Tuesday
7,20.8
8,0.0
9,0.0
10,0.0
11,0.0
12,0.0
2,1, 3, 5, 0, 6, 0.00,10.00,Tuesday
7,20.8
8,0.0
9,0.0
10,0.0
11,0.0
12,0.0
2,1, 3, 5, 0, 6,10.00,20.00,Tuesday
7,20.1
8,0.0
9,0.0
10,0.0
11,0.0
12,0.0
2,1, 3, 5, 0, 6,20.00,30.00,Tuesday
7,20.1
8,0.0
9,0.0
10,0.0
11,0.0
12,0.0
2,1, 3, 5, 0, 6,30.00,40.00,Tuesday
7,19.5
8,0.0
9,0.0
10,0.0
11,0.0
12,0.0
2,1, 3, 5, 0, 6,40.00,50.00,Tuesday
7,19.6
8,0.0
9,0.0
10,0.0
11,0.0
12,0.0
2,1, 3, 5, 0, 6,50.00,60.00,Tuesday
7,19.5
8,0.0
9,0.0
10,0.0
11,0.0
12,0.0
2,1, 3, 5, 0, 7, 0.00,10.00,Tuesday
7,19.6
8,0.0
9,0.0
10,0.0
11,0.0
12,0.0
2,1, 3, 5, 0, 7,10.00,20.00,Tuesday
7,19.9
8,0.0
9,0.0
10,0.0
11,0.0
12,0.0
2,1, 3, 5, 0, 7,20.00,30.00,Tuesday
7,19.6
8,0.0
9,0.0
10,0.0
11,0.0
12,0.0
2,1, 3, 5, 0, 7,30.00,40.00,Tuesday
7,19.4
8,0.0
9,0.0
10,0.0
11,0.0
12,0.0
2,1, 3, 5, 0, 7,40.00,50.00,Tuesday
7,19.5
8,0.0
9,0.0
10,0.0
11,0.0
12,0.0
2,1, 3, 5, 0, 7,50.00,60.00,Tuesday
7,19.8
8,188.7813666178143
9,15.54612227645271
10,15.54612227645271
11,36.5763494127774
12,32.81882963239087
2,1, 3, 5, 0, 8, 0.00,10.00,Tuesday
7,20.1
8,262.37235977726257
9,23.44670567590004
10,23.44670567590004
11,55.91813324756997
12,50.85832872395211
2,1, 3, 5, 0, 8,10.00,20.00,Tuesday
7,20.1
8,318.02474267016427
9,31.027504657879363
10,31.027504657879363
11,74.28860476310004
12,71.23526803473026
2,1, 3, 5, 0, 8,20.00,30.00,Tuesday
7,20.7
8,344.6236156859206
9,38.69026182087142
10,38.69026182087142
11,89.4605929147452
12,94.82518541094015
2,1, 3, 5, 0, 8,30.00,40.00,Tuesday
7,21.2
8,387.4450010650384
9,46.68074770502926
10,46.68074770502926
11,108.56978418909289
12,122.9083956640783
2,1, 3, 5, 0, 8,40.00,50.00,Tuesday
7,22.0
8,413.97714612900549
9,53.94785939857485
10,53.94785939857485
11,125.16459224198182
12,149.65559903129285
2,1, 3, 5, 0, 8,50.00,60.00,Tuesday
7,22.9
8,477.9755046334704
9,63.400541820496759
10,63.400541820496759
11,152.369177622651
12,179.77908649266625
2,1, 3, 5, 0, 9, 0.00,10.00,Tuesday
7,24.3
8,512.5739145080977
9,70.02182294335494
10,70.02182294335494
11,172.73370835984268
12,211.46184140682346
2,1, 3, 5, 0, 9,10.00,20.00,Tuesday
7,24.3
8,537.8451993930478
9,76.25592167051902
10,76.25592167051902
11,191.82504667730769
12,242.3903809745679
2,1, 3, 5, 0, 9,20.00,30.00,Tuesday
7,24.4
8,572.0281240861549
9,82.97321143212301
10,82.97321143212301
11,214.80431181313063
12,279.3012377838303
2,1, 3, 5, 0, 9,30.00,40.00,Tuesday
7,24.7
8,591.4259633722551
9,88.75613856876166
10,88.75613856876166
11,234.42618839750026
12,312.5891521966578
2,1, 3, 5, 0, 9,40.00,50.00,Tuesday
7,25.1
8,607.6004155510948
9,94.36290569206349
10,94.36290569206349
11,254.08853911073559
12,346.5535791289747
2,1, 3, 5, 0, 9,50.00,60.00,Tuesday
7,25.4
8,615.3475949067196
9,100.09845205498209
10,100.09845205498209
11,272.1894775408197
12,378.789890642489
2,1, 3, 5, 0,10, 0.00,10.00,Tuesday
7,25.9
8,621.7515910539045
9,106.04649160331917
10,106.04649160331917
11,290.84929400601996
12,412.12895718677228
2,1, 3, 5, 0,10,10.00,20.00,Tuesday
7,26.2
8,622.9085140087053
9,110.68838397875646
10,110.68838397875646
11,307.64594575273005
12,442.92492501346768
2,1, 3, 5, 0,10,20.00,30.00,Tuesday
7,26.3
8,616.9739252817477
9,112.86167748676636
10,112.86167748676636
11,320.9540356525354
12,468.73292261201046
2,1, 3, 5, 0,10,30.00,40.00,Tuesday
7,26.4
8,641.2357195914901
9,121.26755446892814
10,121.26755446892814
11,351.882755321483
12,508.7322541686676
2,1, 3, 5, 0,10,40.00,50.00,Tuesday
7,26.4
8,641.34879949604
9,124.86447906058139
10,124.86447906058139
11,371.2951348490222
12,544.3473372216531
2,1, 3, 5, 0,10,50.00,60.00,Tuesday
7,25.9
8,634.8591710441776
9,128.7674573392796
10,128.7674573392796
11,388.9785211670216
12,577.3261035953899
2,1, 3, 5, 0,11, 0.00,10.00,Tuesday
7,26.2
8,608.2178193728303
9,128.9836551766515
10,128.9836551766515
11,395.08340618433086
12,591.8899249038062
2,1, 3, 5, 0,11,10.00,20.00,Tuesday
7,26.9
8,612.9866660381375
9,132.93765903662789
10,132.93765903662789
11,421.5801149144272
12,639.928314225044
2,1, 3, 5, 0,11,20.00,30.00,Tuesday
7,27.2
8,594.8886802343468
9,135.0481084842055
10,135.0481084842055
11,435.4562330667684
12,667.203994435848
2,1, 3, 5, 0,11,30.00,40.00,Tuesday
7,27.3
8,573.1049448068046
9,136.39163906952545
10,136.39163906952545
11,447.64022205256659
12,691.7820438595079
2,1, 3, 5, 0,11,40.00,50.00,Tuesday
7,27.4
8,548.8094869851915
9,137.72359871770176
10,137.72359871770176
11,458.95718259020375
12,714.7533697893902
2,1, 3, 5, 0,11,50.00,60.00,Tuesday
7,27.6
8,524.1468640161405
9,139.1910744449412
10,139.1910744449412
11,471.0370943596632
12,738.8948116966124
2,1, 3, 5, 0,12, 0.00,10.00,Tuesday
7,28.5
8,495.6856538110889
9,140.7126229619931
10,140.7126229619931
11,480.8395943868818
12,758.7725346614767
2,1, 3, 5, 0,12,10.00,20.00,Tuesday
7,28.0
8,465.21381622513578
9,142.18577230340919
10,142.18577230340919
11,489.48470203235225
12,776.3683437342738
2,1, 3, 5, 0,12,20.00,30.00,Tuesday
7,29.1
8,430.78979222413786
9,143.1265097783823
10,143.1265097783823
11,494.33433831588016
12,787.097219024786
2,1, 3, 5, 0,12,30.00,40.00,Tuesday
7,29.2
8,396.4979564719991
9,143.97666108286908
10,143.97666108286908
11,499.55885070861788
12,798.2744029944586
2,1, 3, 5, 0,12,40.00,50.00,Tuesday
7,29.9
8,362.52937738533026
9,145.62822721414998
10,145.62822721414998
11,505.28517999300677
12,809.6682069076551
2,1, 3, 5, 0,12,50.00,60.00,Tuesday
7,30.5
8,327.01784660064649
9,146.36916113508986
10,146.36916113508986
11,509.4725669077686
12,818.4598016879874
2,1, 3, 5, 0,13, 0.00,10.00,Tuesday
7,31.4
8,290.64853243049415
9,146.66064831147359
10,146.66064831147359
11,512.8697486931537
12,825.766891455871
2,1, 3, 5, 0,13,10.00,20.00,Tuesday
7,30.8
8,250.6703810143153
9,145.5637990677334
10,145.5637990677334
11,508.2216310797425
12,818.701514081323
2,1, 3, 5, 0,13,20.00,30.00,Tuesday
7,30.6
8,214.37609093628718
9,146.3723733055232
10,146.3723733055232
11,509.7037691909099
12,821.6339513077795
2,1, 3, 5, 0,13,30.00,40.00,Tuesday
7,30.8
8,177.27362154239678
9,146.683468162368
10,146.683468162368
11,506.71757634872486
12,816.3210481584217
2,1, 3, 5, 0,13,40.00,50.00,Tuesday
7,30.9
8,143.97067833810267
9,143.97067833810267
10,149.81595989816698
11,487.14477655483418
12,781.7075826313696
2,1, 3, 5, 0,13,50.00,60.00,Tuesday
7,31.5
8,116.90801640263239
9,116.90801640263239
10,133.14395893307884
11,253.26203025806405
12,407.60421830253559
2,1, 3, 5, 0,14, 0.00,10.00,Tuesday
7,31.8
8,123.2526656242745
9,123.2526656242745
10,166.95275592668586
11,320.6348903162607
12,498.28097135055637
2,1, 3, 5, 0,14,10.00,20.00,Tuesday
7,32.0
8,154.98022374329728
9,154.98022374329728
10,274.4904139325779
11,523.5418140493126
12,842.1783561262405
2,1, 3, 5, 0,14,20.00,30.00,Tuesday
7,31.8
8,156.9716761322873
9,156.9716761322873
10,313.29347043745755
11,522.2808216655753
12,838.1609802694034
2,1, 3, 5, 0,14,30.00,40.00,Tuesday
7,31.6
8,160.045206974586
9,160.045206974586
10,353.1881610707092
11,522.6684017238447
12,836.6478959537885
2,1, 3, 5, 0,14,40.00,50.00,Tuesday
7,32.8
8,168.087157205643
9,168.087157205643
10,398.54966679725217
11,528.936041793131
12,844.8507753851918
2,1, 3, 5, 0,14,50.00,60.00,Tuesday
7,33.5
8,176.4167530553024
9,176.4167530553024
10,396.8294433629722
11,471.74659763908439
12,748.8350708863186
2,1, 3, 5, 0,15, 0.00,10.00,Tuesday
7,31.8
8,148.79508018901775
9,148.79508018901775
10,191.26783148461554
11,198.41774272328284
12,344.4057583993253
2,1, 3, 5, 0,15,10.00,20.00,Tuesday
7,32.4
8,164.52271115956305
9,164.52271115956305
10,321.37580294779249
11,326.60275616532376
12,520.837325520275
2,1, 3, 5, 0,15,20.00,30.00,Tuesday
7,32.8
8,180.50000441213923
9,180.50000441213923
10,506.78246938655368
11,482.00063077571908
12,761.3054913388265
2,1, 3, 5, 0,15,30.00,40.00,Tuesday
7,33.7
8,178.62927420459634
9,178.62927420459634
10,529.8283553313711
11,471.384124145202
12,741.0290048828033
2,1, 3, 5, 0,15,40.00,50.00,Tuesday
7,32.9
8,173.47452968365404
9,173.47452968365404
10,517.1641155921185
11,433.74796203340108
12,675.0051302411873
2,1, 3, 5, 0,15,50.00,60.00,Tuesday
7,33.3
8,179.74857275298477
9,179.74857275298477
10,558.692370114188
11,441.9500245428312
12,687.0673455131699
2,1, 3, 5, 0,16, 0.00,10.00,Tuesday
7,33.9
8,189.5165397570087
9,189.5165397570087
10,598.9269565626514
11,449.5600722911085
12,699.613464846472
2,1, 3, 5, 0,16,10.00,20.00,Tuesday
7,33.6
8,167.75947591968598
9,167.75947591968598
10,485.998264570973
11,354.023425121611
12,557.9593169084858
2,1, 3, 5, 0,16,20.00,30.00,Tuesday
7,32.9
8,169.03751579942685
9,169.03751579942685
10,492.13402889585628
11,343.84165839002295
12,538.7072676359977
2,1, 3, 5, 0,16,30.00,40.00,Tuesday
7,33.3
8,149.50621402215928
9,149.50621402215928
10,456.14328003048908
11,303.24491282581138
12,470.32864859202268
2,1, 3, 5, 0,16,40.00,50.00,Tuesday
7,33.5
8,111.44522879069908
9,111.44522879069908
10,348.4983126401248
11,221.80533321744663
12,338.5925432866397
2,1, 3, 5, 0,16,50.00,60.00,Tuesday
7,32.9
8,63.590171399749809
9,63.590171399749809
10,65.26091183466964
11,64.31351871721498
12,121.40654325242429
2,1, 3, 5, 0,17, 0.00,10.00,Tuesday
7,32.6
8,43.64484919863681
9,43.64484919863681
10,43.64561522500265
11,43.64515797754264
12,83.00056379002665
2,1, 3, 5, 0,17,10.00,20.00,Tuesday
7,30.9
8,31.900803786057169
9,31.900803786057169
10,31.900803786057169
11,31.900803786057169
12,60.94
2,1, 3, 5, 0,17,20.00,30.00,Tuesday
7,29.4
8,25.73990605877602
9,25.73990605877602
10,25.73990605877602
11,25.73990605877602
12,49.32
2,1, 3, 5, 0,17,30.00,40.00,Tuesday
7,29.0
8,19.449737188601156
9,19.449737188601156
10,19.453947875109756
11,19.451110806358839
12,37.39232019253125
2,1, 3, 5, 0,17,40.00,50.00,Tuesday
7,28.4
8,22.44991008632345
9,22.44991008632345
10,22.47756970132305
11,22.458316259762513
12,43.16372158686837
2,1, 3, 5, 0,17,50.00,60.00,Tuesday
7,29.2
8,32.26037340854136
9,32.26037340854136
10,33.69575139526596
11,32.666458157735238
12,62.316921668416608
2,1, 3, 5, 0,18, 0.00,10.00,Tuesday
7,28.0
8,51.907807736398819
9,51.907807736398819
10,58.1357334258213
11,53.54599882980639
12,100.8217000614379
2,1, 3, 5, 0,18,10.00,20.00,Tuesday
7,26.8
8,65.49212741948822
9,65.49212741948822
10,92.76318924789247
11,72.15079492845655
12,131.90349861409374
2,1, 3, 5, 0,18,20.00,30.00,Tuesday
7,26.8
8,58.07941309463624
9,58.07941309463624
10,85.71667604196489
11,64.3298916213339
12,117.03664067549676
2,1, 3, 5, 0,18,30.00,40.00,Tuesday
7,27.5
8,47.25325689388055
9,47.25325689388055
10,68.09277795977738
11,51.60696543280328
12,94.29533449874353
2,1, 3, 5, 0,18,40.00,50.00,Tuesday
7,28.0
8,48.00701948379829
9,48.00701948379829
10,89.34188809105038
11,55.95709130768254
12,98.27969959127936
2,1, 3, 5, 0,18,50.00,60.00,Tuesday
7,28.3
8,41.53275249946796
9,41.53275249946796
10,93.1455410062102
11,50.63348981165049
12,85.91002617386775
2,1, 3, 5, 0,19, 0.00,10.00,Tuesday
7,28.1
8,42.46733508842303
9,42.46733508842303
10,177.9200313212449
11,64.25080082148253
12,93.71618017715169
2,1, 3, 5, 0,19,10.00,20.00,Tuesday
7,28.4
8,32.00842829705497
9,32.00842829705497
10,195.21002121186235
11,55.79346516294138
12,72.02479641035095
2,1, 3, 5, 0,19,20.00,30.00,Tuesday
7,28.3
8,18.119311983232398
9,18.119311983232398
10,95.82867387333892
11,28.30107093616792
12,39.85201902693178
2,1, 3, 5, 0,19,30.00,40.00,Tuesday
7,28.1
8,0.0
9,0.0
10,0.0
11,0.0
12,0.0
2,1, 3, 5, 0,19,40.00,50.00,Tuesday
7,27.9
8,0.0
9,0.0
10,0.0
11,0.0
12,0.0
2,1, 3, 5, 0,19,50.00,60.00,Tuesday
7,27.8
8,0.0
9,0.0
10,0.0
11,0.0
12,0.0
2,1, 3, 5, 0,20, 0.00,10.00,Tuesday
7,27.7
8,0.0
9,0.0
10,0.0
11,0.0
12,0.0
2,1, 3, 5, 0,20,10.00,20.00,Tuesday
7,27.4
8,0.0
9,0.0
10,0.0
11,0.0
12,0.0
2,1, 3, 5, 0,20,20.00,30.00,Tuesday
7,27.0
8,0.0
9,0.0
10,0.0
11,0.0
12,0.0
2,1, 3, 5, 0,20,30.00,40.00,Tuesday
7,26.9
8,0.0
9,0.0
10,0.0
11,0.0
12,0.0
2,1, 3, 5, 0,20,40.00,50.00,Tuesday
7,26.6
8,0.0
9,0.0
10,0.0
11,0.0
12,0.0
2,1, 3, 5, 0,20,50.00,60.00,Tuesday
7,26.3
8,0.0
9,0.0
10,0.0
11,0.0
12,0.0
2,1, 3, 5, 0,21, 0.00,10.00,Tuesday
7,26.0
8,0.0
9,0.0
10,0.0
11,0.0
12,0.0
2,1, 3, 5, 0,21,10.00,20.00,Tuesday
7,26.3
8,0.0
9,0.0
10,0.0
11,0.0
12,0.0
2,1, 3, 5, 0,21,20.00,30.00,Tuesday
7,26.1
8,0.0
9,0.0
10,0.0
11,0.0
12,0.0
2,1, 3, 5, 0,21,30.00,40.00,Tuesday
7,26.0
8,0.0
9,0.0
10,0.0
11,0.0
12,0.0
2,1, 3, 5, 0,21,40.00,50.00,Tuesday
7,26.2
8,0.0
9,0.0
10,0.0
11,0.0
12,0.0
2,1, 3, 5, 0,21,50.00,60.00,Tuesday
7,25.9
8,0.0
9,0.0
10,0.0
11,0.0
12,0.0
2,1, 3, 5, 0,22, 0.00,10.00,Tuesday
7,26.1
8,0.0
9,0.0
10,0.0
11,0.0
12,0.0
2,1, 3, 5, 0,22,10.00,20.00,Tuesday
7,25.9
8,0.0
9,0.0
10,0.0
11,0.0
12,0.0
2,1, 3, 5, 0,22,20.00,30.00,Tuesday
7,25.3
8,0.0
9,0.0
10,0.0
11,0.0
12,0.0
2,1, 3, 5, 0,22,30.00,40.00,Tuesday
7,25.3
8,0.0
9,0.0
10,0.0
11,0.0
12,0.0
2,1, 3, 5, 0,22,40.00,50.00,Tuesday
7,25.4
8,0.0
9,0.0
10,0.0
11,0.0
12,0.0
2,1, 3, 5, 0,22,50.00,60.00,Tuesday
7,25.2
8,0.0
9,0.0
10,0.0
11,0.0
12,0.0
2,1, 3, 5, 0,23, 0.00,10.00,Tuesday
7,25.1
8,0.0
9,0.0
10,0.0
11,0.0
12,0.0
2,1, 3, 5, 0,23,10.00,20.00,Tuesday
7,25.6
8,0.0
9,0.0
10,0.0
11,0.0
12,0.0
2,1, 3, 5, 0,23,20.00,30.00,Tuesday
7,25.5
8,0.0
9,0.0
10,0.0
11,0.0
12,0.0
2,1, 3, 5, 0,23,30.00,40.00,Tuesday
7,25.0
8,0.0
9,0.0
10,0.0
11,0.0
12,0.0
2,1, 3, 5, 0,23,40.00,50.00,Tuesday
7,25.0
8,0.0
9,0.0
10,0.0
11,0.0
12,0.0
2,1, 3, 5, 0,23,50.00,60.00,Tuesday
7,25.3
8,0.0
9,0.0
10,0.0
11,0.0
12,0.0
2,1, 3, 5, 0,24, 0.00,10.00,Tuesday
7,25.4
8,0.0
9,0.0
10,0.0
11,0.0
12,0.0
2,1, 3, 5, 0,24,10.00,20.00,Tuesday
7,25.4
8,0.0
9,0.0
10,0.0
11,0.0
12,0.0
2,1, 3, 5, 0,24,20.00,30.00,Tuesday
7,25.4
8,0.0
9,0.0
10,0.0
11,0.0
12,0.0
2,1, 3, 5, 0,24,30.00,40.00,Tuesday
7,25.5
8,0.0
9,0.0
10,0.0
11,0.0
12,0.0
2,1, 3, 5, 0,24,40.00,50.00,Tuesday
7,25.5
8,0.0
9,0.0
10,0.0
11,0.0
12,0.0
2,1, 3, 5, 0,24,50.00,60.00,Tuesday
7,25.6
8,0.0
9,0.0
10,0.0
11,0.0
12,0.0
End of Data
 Number of Records Written=         864
