Program Version,EnergyPlus, Version 9.5.0-de239b2e5f, YMD=2021.12.09 14:18
1,5,Environment Title[],Latitude[deg],Longitude[deg],Time Zone[],Elevation[m]
2,8,Day of Simulation[],Month[],Day of Month[],DST Indicator[1=yes 0=no],Hour[],StartMinute[],EndMinute[],DayType
3,5,Cumulative Day of Simulation[],Month[],Day of Month[],DST Indicator[1=yes 0=no],DayType  ! When Daily Report Variables Requested
4,2,Cumulative Days of Simulation[],Month[]  ! When Monthly Report Variables Requested
5,1,Cumulative Days of Simulation[] ! When Run Period Report Variables Requested
6,1,Calendar Year of Simulation[] ! When Annual Report Variables Requested
148,1,THERMAL ZONE: JORGE,Zone Mean Air Temperature [C] !TimeStep
596,1,JORGE,Zone Thermal Comfort Fanger Model PMV [] !TimeStep
597,1,JORGE,Zone Thermal Comfort Fanger Model PPD [%] !TimeStep
End of Data Dictionary
1,RUN PERIOD 1,  18.85, -99.14,  -6.00,1280.00
2,1, 5, 3, 0, 1, 0.00,10.00,Wednesday
148,26.391963401313448
596,-31.169235972763834
597,100.0
2,1, 5, 3, 0, 1,10.00,20.00,Wednesday
148,26.35747629132949
596,-31.305207344907744
597,100.0
2,1, 5, 3, 0, 1,20.00,30.00,Wednesday
148,26.384399617265815
596,-31.30140000610223
597,100.0
2,1, 5, 3, 0, 1,30.00,40.00,Wednesday
148,26.358497544734904
596,-31.420691309093983
597,100.0
2,1, 5, 3, 0, 1,40.00,50.00,Wednesday
148,26.24663294633761
596,-31.68640219636712
597,100.0
2,1, 5, 3, 0, 1,50.00,60.00,Wednesday
148,26.046316076394786
596,-32.11377083157076
597,100.0
2,1, 5, 3, 0, 2, 0.00,10.00,Wednesday
148,25.882077621694504
596,-32.49088071067355
597,100.0
2,1, 5, 3, 0, 2,10.00,20.00,Wednesday
148,25.770402230160415
596,-32.7801416752222
597,100.0
2,1, 5, 3, 0, 2,20.00,30.00,Wednesday
148,25.529037189486176
596,-33.29722927722035
597,100.0
2,1, 5, 3, 0, 2,30.00,40.00,Wednesday
148,25.398572914636114
596,-33.61272607711709
597,100.0
2,1, 5, 3, 0, 2,40.00,50.00,Wednesday
148,25.360693882640626
596,-33.75312376561983
597,100.0
2,1, 5, 3, 0, 2,50.00,60.00,Wednesday
148,25.413764826004465
596,-33.742422699051108
597,100.0
2,1, 5, 3, 0, 3, 0.00,10.00,Wednesday
148,25.43966525940933
596,-33.778595291110139
597,100.0
2,1, 5, 3, 0, 3,10.00,20.00,Wednesday
148,25.579849532240048
596,-33.59986438712258
597,100.0
2,1, 5, 3, 0, 3,20.00,30.00,Wednesday
148,25.682762737150857
596,-33.472522752787458
597,100.0
2,1, 5, 3, 0, 3,30.00,40.00,Wednesday
148,25.618374955095175
596,-33.664776134832397
597,100.0
2,1, 5, 3, 0, 3,40.00,50.00,Wednesday
148,25.555913671393854
596,-33.83498973960696
597,100.0
2,1, 5, 3, 0, 3,50.00,60.00,Wednesday
148,25.495866641074199
596,-34.02915067382783
597,100.0
2,1, 5, 3, 0, 4, 0.00,10.00,Wednesday
148,25.438406924128274
596,-34.20822514008816
597,100.0
2,1, 5, 3, 0, 4,10.00,20.00,Wednesday
148,25.32919747943056
596,-34.463722016097808
597,100.0
2,1, 5, 3, 0, 4,20.00,30.00,Wednesday
148,25.305501961846728
596,-34.60715606278724
597,100.0
2,1, 5, 3, 0, 4,30.00,40.00,Wednesday
148,25.016455374232164
596,-35.21882141601316
597,100.0
2,1, 5, 3, 0, 4,40.00,50.00,Wednesday
148,24.630051442911865
596,-36.05806483371928
597,100.0
2,1, 5, 3, 0, 4,50.00,60.00,Wednesday
148,24.46851350894071
596,-36.453605200640748
597,100.0
2,1, 5, 3, 0, 5, 0.00,10.00,Wednesday
148,24.400242489322836
596,-36.68533806517337
597,100.0
2,1, 5, 3, 0, 5,10.00,20.00,Wednesday
148,24.583725109513336
596,-36.438300389556179
597,100.0
2,1, 5, 3, 0, 5,20.00,30.00,Wednesday
148,24.747087629114576
596,-36.175182918305498
597,100.0
2,1, 5, 3, 0, 5,30.00,40.00,Wednesday
148,24.85877795840743
596,-36.03281909939657
597,100.0
2,1, 5, 3, 0, 5,40.00,50.00,Wednesday
148,24.781990713234344
596,-36.200460659121578
597,100.0
2,1, 5, 3, 0, 5,50.00,60.00,Wednesday
148,24.52629528700876
596,-36.76854707439101
597,100.0
2,1, 5, 3, 0, 6, 0.00,10.00,Wednesday
148,24.313158339343805
596,-37.229814464443368
597,100.0
2,1, 5, 3, 0, 6,10.00,20.00,Wednesday
148,24.100322145988466
596,-37.77508099269108
597,100.0
2,1, 5, 3, 0, 6,20.00,30.00,Wednesday
148,24.05478899798379
596,-37.92870140028136
597,100.0
2,1, 5, 3, 0, 6,30.00,40.00,Wednesday
148,23.88046892785959
596,-38.38824465154625
597,100.0
2,1, 5, 3, 0, 6,40.00,50.00,Wednesday
148,23.702719295642365
596,-38.787849717654889
597,100.0
2,1, 5, 3, 0, 6,50.00,60.00,Wednesday
148,23.58070680197228
596,-39.1081742312829
597,100.0
2,1, 5, 3, 0, 7, 0.00,10.00,Wednesday
148,23.62828197438898
596,-39.0823312681145
597,100.0
2,1, 5, 3, 0, 7,10.00,20.00,Wednesday
148,23.80941679482486
596,-38.778181459382548
597,100.0
2,1, 5, 3, 0, 7,20.00,30.00,Wednesday
148,23.886263124853025
596,-38.708190280863728
597,100.0
2,1, 5, 3, 0, 7,30.00,40.00,Wednesday
148,23.54517083351042
596,-39.42047208145652
597,100.0
2,1, 5, 3, 0, 7,40.00,50.00,Wednesday
148,23.3739742852424
596,-39.79482859017063
597,100.0
2,1, 5, 3, 0, 7,50.00,60.00,Wednesday
148,23.76472863814127
596,-39.04633035132777
597,100.0
2,1, 5, 3, 0, 8, 0.00,10.00,Wednesday
148,23.97991649198611
596,-38.61332367678344
597,100.0
2,1, 5, 3, 0, 8,10.00,20.00,Wednesday
148,23.73841598223594
596,-39.07016230024178
597,100.0
2,1, 5, 3, 0, 8,20.00,30.00,Wednesday
148,23.792010722686947
596,-38.92254128089084
597,100.0
2,1, 5, 3, 0, 8,30.00,40.00,Wednesday
148,23.936629670033619
596,-38.5861104776313
597,100.0
2,1, 5, 3, 0, 8,40.00,50.00,Wednesday
148,24.15938499786398
596,-38.06870818270183
597,100.0
2,1, 5, 3, 0, 8,50.00,60.00,Wednesday
148,24.416581724612404
596,-37.47162791004031
597,100.0
2,1, 5, 3, 0, 9, 0.00,10.00,Wednesday
148,24.92691901005687
596,-36.35635571331806
597,100.0
2,1, 5, 3, 0, 9,10.00,20.00,Wednesday
148,25.195526949831149
596,-35.79891589650527
597,100.0
2,1, 5, 3, 0, 9,20.00,30.00,Wednesday
148,25.281130317562928
596,-35.56680261378437
597,100.0
2,1, 5, 3, 0, 9,30.00,40.00,Wednesday
148,25.32205447196678
596,-35.39627334591798
597,100.0
2,1, 5, 3, 0, 9,40.00,50.00,Wednesday
148,25.400569825517367
596,-35.12294623271564
597,100.0
2,1, 5, 3, 0, 9,50.00,60.00,Wednesday
148,25.503072109863134
596,-34.82178150132739
597,100.0
2,1, 5, 3, 0,10, 0.00,10.00,Wednesday
148,27.52425741785165
596,0.037631597341256737
597,5.029316610039089
2,1, 5, 3, 0,10,10.00,20.00,Wednesday
148,27.84730455631492
596,0.15121167011245768
597,5.4737961855413179
2,1, 5, 3, 0,10,20.00,30.00,Wednesday
148,28.139037745507829
596,0.2239379072628809
597,6.0403646197120939
2,1, 5, 3, 0,10,30.00,40.00,Wednesday
148,28.632756032123678
596,0.3529940287877214
597,7.592798816575879
2,1, 5, 3, 0,10,40.00,50.00,Wednesday
148,28.782575884783076
596,0.4120761863903641
597,8.539317730898987
2,1, 5, 3, 0,10,50.00,60.00,Wednesday
148,28.74921527436253
596,0.42141319743188268
597,8.702558407085164
2,1, 5, 3, 0,11, 0.00,10.00,Wednesday
148,28.67667579705421
596,0.4137044050835104
597,8.567515202273654
2,1, 5, 3, 0,11,10.00,20.00,Wednesday
148,28.892784323523835
596,0.48017882816115217
597,9.815934792793897
2,1, 5, 3, 0,11,20.00,30.00,Wednesday
148,29.135760884628057
596,0.5552306475868862
597,11.454561640835309
2,1, 5, 3, 0,11,30.00,40.00,Wednesday
148,29.266897333091067
596,0.6042286225930148
597,12.656029871487107
2,1, 5, 3, 0,11,40.00,50.00,Wednesday
148,29.34048162598545
596,0.6376517574122764
597,13.535362911768104
2,1, 5, 3, 0,11,50.00,60.00,Wednesday
148,29.443323676934008
596,0.6772438275449391
597,14.639675919352755
2,1, 5, 3, 0,12, 0.00,10.00,Wednesday
148,29.602472175345608
596,0.7357775041592011
597,16.396472102598965
2,1, 5, 3, 0,12,10.00,20.00,Wednesday
148,29.700026075202506
596,0.7659037426082307
597,17.358093392554936
2,1, 5, 3, 0,12,20.00,30.00,Wednesday
148,29.928965832714526
596,0.843958221187065
597,20.02902684562811
2,1, 5, 3, 0,12,30.00,40.00,Wednesday
148,30.04657140569325
596,0.884891638244125
597,21.531651727676946
2,1, 5, 3, 0,12,40.00,50.00,Wednesday
148,30.238347708490559
596,0.9483487233672594
597,23.99613565810857
2,1, 5, 3, 0,12,50.00,60.00,Wednesday
148,30.417358299701158
596,1.0077369112100108
597,26.44655220128908
2,1, 5, 3, 0,13, 0.00,10.00,Wednesday
148,30.638452177382143
596,1.0823867535505834
597,29.714047993018299
2,1, 5, 3, 0,13,10.00,20.00,Wednesday
148,30.758551788714564
596,1.1211716119878555
597,31.489312364740117
2,1, 5, 3, 0,13,20.00,30.00,Wednesday
148,30.838369073810385
596,1.1582300835728508
597,33.23201803260673
2,1, 5, 3, 0,13,30.00,40.00,Wednesday
148,30.92961864904441
596,1.1846390620376624
597,34.500199944595809
2,1, 5, 3, 0,13,40.00,50.00,Wednesday
148,31.050125741703345
596,1.2093607774291924
597,35.70616721957103
2,1, 5, 3, 0,13,50.00,60.00,Wednesday
148,31.118472395824886
596,1.2305764714785948
597,36.75492660934088
2,1, 5, 3, 0,14, 0.00,10.00,Wednesday
148,31.12812304936447
596,1.2629174401777917
597,38.37682125693252
2,1, 5, 3, 0,14,10.00,20.00,Wednesday
148,31.279721834637109
596,1.3325839318688236
597,41.956012392628839
2,1, 5, 3, 0,14,20.00,30.00,Wednesday
148,31.429509240798294
596,1.3829201402351664
597,44.6036911198322
2,1, 5, 3, 0,14,30.00,40.00,Wednesday
148,31.517650777246798
596,1.4184977467861802
597,46.50009443668251
2,1, 5, 3, 0,14,40.00,50.00,Wednesday
148,31.759592093508404
596,1.4916008652847182
597,50.44409106115448
2,1, 5, 3, 0,14,50.00,60.00,Wednesday
148,32.113629355109939
596,1.579372699124467
597,55.222067511969367
2,1, 5, 3, 0,15, 0.00,10.00,Wednesday
148,31.846713399314916
596,0.5338148316066052
597,10.962128049560065
2,1, 5, 3, 0,15,10.00,20.00,Wednesday
148,31.843997531752373
596,0.5697575720047958
597,11.79991031629065
2,1, 5, 3, 0,15,20.00,30.00,Wednesday
148,32.065452294092469
596,0.7134742504154611
597,15.709654195186218
2,1, 5, 3, 0,15,30.00,40.00,Wednesday
148,32.191347404255569
596,0.8051238970831064
597,18.667992332342139
2,1, 5, 3, 0,15,40.00,50.00,Wednesday
148,32.286465075435447
596,0.8493754502982377
597,20.22390291907392
2,1, 5, 3, 0,15,50.00,60.00,Wednesday
148,32.40280176328256
596,0.928018822369517
597,23.188977652623934
2,1, 5, 3, 0,16, 0.00,10.00,Wednesday
148,32.508242877141018
596,1.0112736435215393
597,26.596739105875103
2,1, 5, 3, 0,16,10.00,20.00,Wednesday
148,32.617116308628059
596,1.0584193818721848
597,28.643021879755609
2,1, 5, 3, 0,16,20.00,30.00,Wednesday
148,32.636126438048297
596,1.0649218596228523
597,28.931587373446619
2,1, 5, 3, 0,16,30.00,40.00,Wednesday
148,32.65241815921001
596,1.0835832901938383
597,29.76804636201767
2,1, 5, 3, 0,16,40.00,50.00,Wednesday
148,32.77744641124438
596,1.1229507086355715
597,31.57195869617817
2,1, 5, 3, 0,16,50.00,60.00,Wednesday
148,32.605619747310857
596,1.0125094149581234
597,26.64932679468879
2,1, 5, 3, 0,17, 0.00,10.00,Wednesday
148,32.4207120845918
596,1.8869996819400135
597,71.41573302423675
2,1, 5, 3, 0,17,10.00,20.00,Wednesday
148,32.234654211655797
596,1.8368712565697334
597,68.90838142272064
2,1, 5, 3, 0,17,20.00,30.00,Wednesday
148,31.920776531251975
596,1.751407952101168
597,64.4835506429469
2,1, 5, 3, 0,17,30.00,40.00,Wednesday
148,31.722096812837405
596,1.694778266719843
597,61.471911187621547
2,1, 5, 3, 0,17,40.00,50.00,Wednesday
148,31.664390457345715
596,1.6720135481827406
597,60.24824058820528
2,1, 5, 3, 0,17,50.00,60.00,Wednesday
148,31.69645090388407
596,1.685372021195351
597,60.96706498193157
2,1, 5, 3, 0,18, 0.00,10.00,Wednesday
148,31.593770483163945
596,1.6652755842887715
597,59.884907937345
2,1, 5, 3, 0,18,10.00,20.00,Wednesday
148,31.507715800837575
596,1.6526954965718362
597,59.20531671654086
2,1, 5, 3, 0,18,20.00,30.00,Wednesday
148,31.52088268904645
596,1.6643845917093672
597,59.83682696213462
2,1, 5, 3, 0,18,30.00,40.00,Wednesday
148,31.551896261797876
596,1.6784760920698097
597,60.59625248796317
2,1, 5, 3, 0,18,40.00,50.00,Wednesday
148,31.632514430373747
596,1.702612272255589
597,61.891479838699698
2,1, 5, 3, 0,18,50.00,60.00,Wednesday
148,31.780094727598727
596,1.7378663053523902
597,63.76822490102442
2,1, 5, 3, 0,19, 0.00,10.00,Wednesday
148,30.267461279943423
596,-21.281492796350617
597,100.0
2,1, 5, 3, 0,19,10.00,20.00,Wednesday
148,29.892707703612055
596,-21.985171511251683
597,100.0
2,1, 5, 3, 0,19,20.00,30.00,Wednesday
148,29.698619002573549
596,-22.385821773501435
597,100.0
2,1, 5, 3, 0,19,30.00,40.00,Wednesday
148,29.23706938492083
596,-23.060278055661244
597,100.0
2,1, 5, 3, 0,19,40.00,50.00,Wednesday
148,28.973666403534116
596,-23.51505236790866
597,100.0
2,1, 5, 3, 0,19,50.00,60.00,Wednesday
148,28.89949618965035
596,-23.78728166904085
597,100.0
2,1, 5, 3, 0,20, 0.00,10.00,Wednesday
148,28.883544978098774
596,-23.90740767796865
597,100.0
2,1, 5, 3, 0,20,10.00,20.00,Wednesday
148,28.819873819361573
596,-24.104700459722556
597,100.0
2,1, 5, 3, 0,20,20.00,30.00,Wednesday
148,28.654731619195134
596,-24.475243818757698
597,100.0
2,1, 5, 3, 0,20,30.00,40.00,Wednesday
148,28.493070242060325
596,-24.817810262696086
597,100.0
2,1, 5, 3, 0,20,40.00,50.00,Wednesday
148,28.230551511070229
596,-25.342328609766267
597,100.0
2,1, 5, 3, 0,20,50.00,60.00,Wednesday
148,28.095920142129285
596,-25.702101030736228
597,100.0
2,1, 5, 3, 0,21, 0.00,10.00,Wednesday
148,27.93805781323205
596,-26.090661172433994
597,100.0
2,1, 5, 3, 0,21,10.00,20.00,Wednesday
148,27.793347498684996
596,-26.438555546421158
597,100.0
2,1, 5, 3, 0,21,20.00,30.00,Wednesday
148,27.550866737098088
596,-26.98991575252127
597,100.0
2,1, 5, 3, 0,21,30.00,40.00,Wednesday
148,27.15011937640999
596,-27.790643954890294
597,100.0
2,1, 5, 3, 0,21,40.00,50.00,Wednesday
148,27.248601991890668
596,-27.727863435731675
597,100.0
2,1, 5, 3, 0,21,50.00,60.00,Wednesday
148,27.14757619997572
596,-28.012410457411876
597,100.0
2,1, 5, 3, 0,22, 0.00,10.00,Wednesday
148,27.1562814639407
596,-28.062548038568278
597,100.0
2,1, 5, 3, 0,22,10.00,20.00,Wednesday
148,27.10139300281946
596,-28.232340476014703
597,100.0
2,1, 5, 3, 0,22,20.00,30.00,Wednesday
148,26.87494225307205
596,-28.800081664462718
597,100.0
2,1, 5, 3, 0,22,30.00,40.00,Wednesday
148,26.773048250281886
596,-29.096905843294445
597,100.0
2,1, 5, 3, 0,22,40.00,50.00,Wednesday
148,26.848831865120677
596,-29.04230541462381
597,100.0
2,1, 5, 3, 0,22,50.00,60.00,Wednesday
148,26.832593758199275
596,-29.157435159351118
597,100.0
2,1, 5, 3, 0,23, 0.00,10.00,Wednesday
148,27.0029609632449
596,-28.974232921993733
597,100.0
2,1, 5, 3, 0,23,10.00,20.00,Wednesday
148,26.953728160905624
596,-29.074102704848124
597,100.0
2,1, 5, 3, 0,23,20.00,30.00,Wednesday
148,26.88189291384744
596,-29.28929291085252
597,100.0
2,1, 5, 3, 0,23,30.00,40.00,Wednesday
148,27.006464883669083
596,-29.218009464360866
597,100.0
2,1, 5, 3, 0,23,40.00,50.00,Wednesday
148,27.046585386539286
596,-29.21717088027109
597,100.0
2,1, 5, 3, 0,23,50.00,60.00,Wednesday
148,26.980189453929403
596,-29.3753466409231
597,100.0
2,1, 5, 3, 0,24, 0.00,10.00,Wednesday
148,26.990443554254079
596,-29.427281306736206
597,100.0
2,1, 5, 3, 0,24,10.00,20.00,Wednesday
148,27.013172756606214
596,-29.472262491604533
597,100.0
2,1, 5, 3, 0,24,20.00,30.00,Wednesday
148,26.916564800663733
596,-29.70685643807404
597,100.0
2,1, 5, 3, 0,24,30.00,40.00,Wednesday
148,26.853229816471069
596,-29.880864040043798
597,100.0
2,1, 5, 3, 0,24,40.00,50.00,Wednesday
148,26.72171966692634
596,-30.182584978545099
597,100.0
2,1, 5, 3, 0,24,50.00,60.00,Wednesday
148,26.661038138793914
596,-30.357004652164624
597,100.0
2,2, 5, 4, 0, 1, 0.00,10.00,Thursday
148,26.834680822405937
596,-30.15325403338545
597,100.0
2,2, 5, 4, 0, 1,10.00,20.00,Thursday
148,26.926468325862858
596,-30.083665484010134
597,100.0
2,2, 5, 4, 0, 1,20.00,30.00,Thursday
148,26.803265444765804
596,-30.348758233435676
597,100.0
2,2, 5, 4, 0, 1,30.00,40.00,Thursday
148,26.567262470186525
596,-30.833536725943309
597,100.0
2,2, 5, 4, 0, 1,40.00,50.00,Thursday
148,26.511252922102846
596,-30.984730286012636
597,100.0
2,2, 5, 4, 0, 1,50.00,60.00,Thursday
148,26.567471627944604
596,-30.949708532249983
597,100.0
2,2, 5, 4, 0, 2, 0.00,10.00,Thursday
148,26.663538036210544
596,-30.8441367933523
597,100.0
2,2, 5, 4, 0, 2,10.00,20.00,Thursday
148,26.640419982744647
596,-30.94091814443998
597,100.0
2,2, 5, 4, 0, 2,20.00,30.00,Thursday
148,26.6210188018864
596,-31.01864550626022
597,100.0
2,2, 5, 4, 0, 2,30.00,40.00,Thursday
148,26.54713523071507
596,-31.207786084780037
597,100.0
2,2, 5, 4, 0, 2,40.00,50.00,Thursday
148,26.454745339357375
596,-31.422524758945405
597,100.0
2,2, 5, 4, 0, 2,50.00,60.00,Thursday
148,26.391630156566217
596,-31.60142190744115
597,100.0
2,2, 5, 4, 0, 3, 0.00,10.00,Thursday
148,26.40302025730754
596,-31.662675474329008
597,100.0
2,2, 5, 4, 0, 3,10.00,20.00,Thursday
148,26.285878128282275
596,-31.955894366046139
597,100.0
2,2, 5, 4, 0, 3,20.00,30.00,Thursday
148,26.26293554225216
596,-32.083108504666508
597,100.0
2,2, 5, 4, 0, 3,30.00,40.00,Thursday
148,26.089940038245559
596,-32.459831281292277
597,100.0
2,2, 5, 4, 0, 3,40.00,50.00,Thursday
148,25.943688158793436
596,-32.779479689433248
597,100.0
2,2, 5, 4, 0, 3,50.00,60.00,Thursday
148,25.960196289457099
596,-32.856384427432278
597,100.0
2,2, 5, 4, 0, 4, 0.00,10.00,Thursday
148,25.902848834327135
596,-33.05161994932212
597,100.0
2,2, 5, 4, 0, 4,10.00,20.00,Thursday
148,25.796246309356854
596,-33.319361985498627
597,100.0
2,2, 5, 4, 0, 4,20.00,30.00,Thursday
148,25.700374702241068
596,-33.57190470325713
597,100.0
2,2, 5, 4, 0, 4,30.00,40.00,Thursday
148,25.577830448588619
596,-33.869944019447
597,100.0
2,2, 5, 4, 0, 4,40.00,50.00,Thursday
148,25.4907252273946
596,-34.08461735691468
597,100.0
2,2, 5, 4, 0, 4,50.00,60.00,Thursday
148,25.469172543094517
596,-34.16563324018689
597,100.0
2,2, 5, 4, 0, 5, 0.00,10.00,Thursday
148,25.396365562016656
596,-34.39826916500866
597,100.0
2,2, 5, 4, 0, 5,10.00,20.00,Thursday
148,25.29261402867604
596,-34.662483942612769
597,100.0
2,2, 5, 4, 0, 5,20.00,30.00,Thursday
148,25.137912236223277
596,-34.97329341878002
597,100.0
2,2, 5, 4, 0, 5,30.00,40.00,Thursday
148,25.071887654713295
596,-35.15636943381077
597,100.0
2,2, 5, 4, 0, 5,40.00,50.00,Thursday
148,25.06232486409325
596,-35.279070888521328
597,100.0
2,2, 5, 4, 0, 5,50.00,60.00,Thursday
148,24.9999515406369
596,-35.48012557337777
597,100.0
2,2, 5, 4, 0, 6, 0.00,10.00,Thursday
148,25.01967067962094
596,-35.48905929963502
597,100.0
2,2, 5, 4, 0, 6,10.00,20.00,Thursday
148,24.704252958296644
596,-36.174668980856377
597,100.0
2,2, 5, 4, 0, 6,20.00,30.00,Thursday
148,24.481212025658935
596,-36.66788958573968
597,100.0
2,2, 5, 4, 0, 6,30.00,40.00,Thursday
148,24.25198052573124
596,-37.20859782432805
597,100.0
2,2, 5, 4, 0, 6,40.00,50.00,Thursday
148,24.078513756503438
596,-37.61584067101118
597,100.0
2,2, 5, 4, 0, 6,50.00,60.00,Thursday
148,24.124350154309519
596,-37.56107316867848
597,100.0
2,2, 5, 4, 0, 7, 0.00,10.00,Thursday
148,24.357489031853214
596,-37.180490122780209
597,100.0
2,2, 5, 4, 0, 7,10.00,20.00,Thursday
148,24.591726747984258
596,-36.77815355906052
597,100.0
2,2, 5, 4, 0, 7,20.00,30.00,Thursday
148,24.393592435965524
596,-37.17909955049596
597,100.0
2,2, 5, 4, 0, 7,30.00,40.00,Thursday
148,24.509280148978627
596,-37.04105744936549
597,100.0
2,2, 5, 4, 0, 7,40.00,50.00,Thursday
148,24.639912402459016
596,-36.79623302807338
597,100.0
2,2, 5, 4, 0, 7,50.00,60.00,Thursday
148,24.72440342971531
596,-36.64652711293293
597,100.0
2,2, 5, 4, 0, 8, 0.00,10.00,Thursday
148,24.740222378735166
596,-36.62140811606759
597,100.0
2,2, 5, 4, 0, 8,10.00,20.00,Thursday
148,24.67026692426887
596,-36.729142243305719
597,100.0
2,2, 5, 4, 0, 8,20.00,30.00,Thursday
148,24.580789756047236
596,-36.87181369965461
597,100.0
2,2, 5, 4, 0, 8,30.00,40.00,Thursday
148,24.62530103710587
596,-36.72752880351816
597,100.0
2,2, 5, 4, 0, 8,40.00,50.00,Thursday
148,24.76259769373104
596,-36.377454156687488
597,100.0
2,2, 5, 4, 0, 8,50.00,60.00,Thursday
148,25.01944852285721
596,-35.831243313472267
597,100.0
2,2, 5, 4, 0, 9, 0.00,10.00,Thursday
148,25.141163777291447
596,-35.536738740573877
597,100.0
2,2, 5, 4, 0, 9,10.00,20.00,Thursday
148,25.2787784438177
596,-35.29233920662846
597,100.0
2,2, 5, 4, 0, 9,20.00,30.00,Thursday
148,25.476473933408128
596,-34.78757178333797
597,100.0
2,2, 5, 4, 0, 9,30.00,40.00,Thursday
148,25.669200251747495
596,-34.32788788469029
597,100.0
2,2, 5, 4, 0, 9,40.00,50.00,Thursday
148,25.81505503909776
596,-33.929260764773889
597,100.0
2,2, 5, 4, 0, 9,50.00,60.00,Thursday
148,25.886346394209505
596,-33.790714188852259
597,100.0
2,2, 5, 4, 0,10, 0.00,10.00,Thursday
148,27.708807487094434
596,0.08556898789336066
597,5.151619784073404
2,2, 5, 4, 0,10,10.00,20.00,Thursday
148,27.903581189120677
596,0.1603574200291714
597,5.532909010656098
2,2, 5, 4, 0,10,20.00,30.00,Thursday
148,28.20336032078648
596,0.23849925810068588
597,6.1803953996330709
2,2, 5, 4, 0,10,30.00,40.00,Thursday
148,28.61519808220608
596,0.3401065990659198
597,7.406104285397859
2,2, 5, 4, 0,10,40.00,50.00,Thursday
148,28.752324040725737
596,0.39248318025761566
597,8.208906739851728
2,2, 5, 4, 0,10,50.00,60.00,Thursday
148,28.834759631298426
596,0.4327816622173408
597,8.906363180978403
2,2, 5, 4, 0,11, 0.00,10.00,Thursday
148,28.942070763975776
596,0.47521488098148759
597,9.716138621991505
2,2, 5, 4, 0,11,10.00,20.00,Thursday
148,29.04801337901803
596,0.5148977086389209
597,10.543672189871274
2,2, 5, 4, 0,11,20.00,30.00,Thursday
148,29.142930991760474
596,0.5502078167533497
597,11.337282811635277
2,2, 5, 4, 0,11,30.00,40.00,Thursday
148,29.290974409808805
596,0.6041783963500896
597,12.654744943711862
2,2, 5, 4, 0,11,40.00,50.00,Thursday
148,29.4123525028455
596,0.6395350689002506
597,13.586353630357309
2,2, 5, 4, 0,11,50.00,60.00,Thursday
148,29.558336894840399
596,0.6963655570373531
597,15.197325457476865
2,2, 5, 4, 0,12, 0.00,10.00,Thursday
148,29.733866153175947
596,0.762019995824444
597,17.231944573494617
2,2, 5, 4, 0,12,10.00,20.00,Thursday
148,29.92806722576138
596,0.8193224664929268
597,19.15826529455407
2,2, 5, 4, 0,12,20.00,30.00,Thursday
148,30.090510472458523
596,0.8808715148248669
597,21.38101755266662
2,2, 5, 4, 0,12,30.00,40.00,Thursday
148,30.233953069656864
596,0.9238661749507735
597,23.026130786102784
2,2, 5, 4, 0,12,40.00,50.00,Thursday
148,30.338802769997089
596,0.9611735826881452
597,24.51372451553783
2,2, 5, 4, 0,12,50.00,60.00,Thursday
148,30.392175917058908
596,0.9821443767352859
597,25.373899695051465
2,2, 5, 4, 0,13, 0.00,10.00,Thursday
148,30.540967386318984
596,1.03576345137511
597,27.64949868988407
2,2, 5, 4, 0,13,10.00,20.00,Thursday
148,30.766509254869584
596,1.1194509612098274
597,31.409480589772927
2,2, 5, 4, 0,13,20.00,30.00,Thursday
148,30.914234023786287
596,1.1650499428384798
597,33.55747065709657
2,2, 5, 4, 0,13,30.00,40.00,Thursday
148,31.029194401341657
596,1.20440171279944
597,35.46284030427155
2,2, 5, 4, 0,13,40.00,50.00,Thursday
148,31.135001106369196
596,1.238650193222035
597,37.15726117400108
2,2, 5, 4, 0,13,50.00,60.00,Thursday
148,31.2889718077354
596,1.2893398906587333
597,39.72133812113011
2,2, 5, 4, 0,14, 0.00,10.00,Thursday
148,31.391623926114165
596,1.3324720410413258
597,41.95017960691209
2,2, 5, 4, 0,14,10.00,20.00,Thursday
148,31.485116951329404
596,1.35737255971396
597,43.254188042898167
2,2, 5, 4, 0,14,20.00,30.00,Thursday
148,31.53138654392893
596,1.3710554776045024
597,43.97558273242278
2,2, 5, 4, 0,14,30.00,40.00,Thursday
148,31.55740329175166
596,1.384245881309381
597,44.674017411402207
2,2, 5, 4, 0,14,40.00,50.00,Thursday
148,31.620144299044399
596,1.3939776723694959
597,45.191099868906608
2,2, 5, 4, 0,14,50.00,60.00,Thursday
148,31.765867327871793
596,1.465451085734842
597,49.027438080761509
2,2, 5, 4, 0,15, 0.00,10.00,Thursday
148,31.975925520218668
596,0.5964872889598848
597,12.459276951348386
2,2, 5, 4, 0,15,10.00,20.00,Thursday
148,31.95485609872363
596,0.5949144676780827
597,12.419620192783399
2,2, 5, 4, 0,15,20.00,30.00,Thursday
148,31.988338734846815
596,0.6035160291093785
597,12.637809979785033
2,2, 5, 4, 0,15,30.00,40.00,Thursday
148,32.0037804022296
596,0.6010188460603829
597,12.574134887021629
2,2, 5, 4, 0,15,40.00,50.00,Thursday
148,32.02710524929614
596,0.630913283783177
597,13.354178567327083
2,2, 5, 4, 0,15,50.00,60.00,Thursday
148,32.11412224954274
596,0.6953623098100507
597,15.167674825651872
2,2, 5, 4, 0,16, 0.00,10.00,Thursday
148,32.32978093909519
596,0.8248482111677559
597,19.351362131203105
2,2, 5, 4, 0,16,10.00,20.00,Thursday
148,32.523831680073147
596,0.9448067327052188
597,23.854328529911457
2,2, 5, 4, 0,16,20.00,30.00,Thursday
148,32.645071933093827
596,1.0083314972666285
597,26.47176831719716
2,2, 5, 4, 0,16,30.00,40.00,Thursday
148,32.70892811606478
596,1.0492359474982076
597,28.238062974321126
2,2, 5, 4, 0,16,40.00,50.00,Thursday
148,32.720794497996
596,1.0362989461305199
597,27.672766063389376
2,2, 5, 4, 0,16,50.00,60.00,Thursday
148,32.66071676017423
596,1.0022732854873263
597,26.21546672474736
2,2, 5, 4, 0,17, 0.00,10.00,Thursday
148,32.67427400075559
596,1.9089199620011082
597,72.48793500911741
2,2, 5, 4, 0,17,10.00,20.00,Thursday
148,32.8140956655989
596,1.940776104669986
597,74.01732918504271
2,2, 5, 4, 0,17,20.00,30.00,Thursday
148,32.74937537550227
596,1.9252483947793476
597,73.2762503336765
2,2, 5, 4, 0,17,30.00,40.00,Thursday
148,32.80306239658984
596,1.9428722025471357
597,74.11671049041994
2,2, 5, 4, 0,17,40.00,50.00,Thursday
148,32.74164680901242
596,1.9271938252926784
597,73.36956316099752
2,2, 5, 4, 0,17,50.00,60.00,Thursday
148,32.71779176180272
596,1.9064563826000265
597,72.36821543633369
2,2, 5, 4, 0,18, 0.00,10.00,Thursday
148,32.647609616385938
596,1.8913247998718275
597,71.62851770161496
2,2, 5, 4, 0,18,10.00,20.00,Thursday
148,32.65686404197135
596,1.8962476048101012
597,71.86998112300131
2,2, 5, 4, 0,18,20.00,30.00,Thursday
148,32.70346494689143
596,1.9139743535735683
597,72.7329218610736
2,2, 5, 4, 0,18,30.00,40.00,Thursday
148,32.78305608967792
596,1.9350996044137097
597,73.74740085784676
2,2, 5, 4, 0,18,40.00,50.00,Thursday
148,32.84981966991413
596,1.9510391557013228
597,74.50240605136554
2,2, 5, 4, 0,18,50.00,60.00,Thursday
148,32.79396968856532
596,1.9324466621449415
597,73.62085527785414
2,2, 5, 4, 0,19, 0.00,10.00,Thursday
148,31.359680654855468
596,-19.152214469849576
597,100.0
2,2, 5, 4, 0,19,10.00,20.00,Thursday
148,30.88310526712618
596,-19.949011989342038
597,100.0
2,2, 5, 4, 0,19,20.00,30.00,Thursday
148,30.612889691458276
596,-20.32026893557355
597,100.0
2,2, 5, 4, 0,19,30.00,40.00,Thursday
148,30.411233206169127
596,-20.673163357297395
597,100.0
2,2, 5, 4, 0,19,40.00,50.00,Thursday
148,30.17795844861554
596,-21.087833200186546
597,100.0
2,2, 5, 4, 0,19,50.00,60.00,Thursday
148,30.066449890251556
596,-21.416706877702798
597,100.0
2,2, 5, 4, 0,20, 0.00,10.00,Thursday
148,30.008442359879355
596,-21.613006528475134
597,100.0
2,2, 5, 4, 0,20,10.00,20.00,Thursday
148,29.90538587608549
596,-21.861042532158995
597,100.0
2,2, 5, 4, 0,20,20.00,30.00,Thursday
148,29.777383290600715
596,-22.139203068125139
597,100.0
2,2, 5, 4, 0,20,30.00,40.00,Thursday
148,29.668510072238609
596,-22.373193915857589
597,100.0
2,2, 5, 4, 0,20,40.00,50.00,Thursday
148,29.575691258413156
596,-22.578632613055313
597,100.0
2,2, 5, 4, 0,20,50.00,60.00,Thursday
148,29.511436339313705
596,-22.714733622498558
597,100.0
2,2, 5, 4, 0,21, 0.00,10.00,Thursday
148,29.45306139282915
596,-22.858202959032277
597,100.0
2,2, 5, 4, 0,21,10.00,20.00,Thursday
148,29.394871844519647
596,-22.985369369872556
597,100.0
2,2, 5, 4, 0,21,20.00,30.00,Thursday
148,29.322944053244087
596,-23.15350095871388
597,100.0
2,2, 5, 4, 0,21,30.00,40.00,Thursday
148,29.27967914335051
596,-23.249806882267348
597,100.0
2,2, 5, 4, 0,21,40.00,50.00,Thursday
148,29.231150532486699
596,-23.369067830851514
597,100.0
2,2, 5, 4, 0,21,50.00,60.00,Thursday
148,29.14750061288488
596,-23.563983005725335
597,100.0
2,2, 5, 4, 0,22, 0.00,10.00,Thursday
148,29.017357102047769
596,-23.832496433303004
597,100.0
2,2, 5, 4, 0,22,10.00,20.00,Thursday
148,28.933064079422615
596,-24.002366530519916
597,100.0
2,2, 5, 4, 0,22,20.00,30.00,Thursday
148,28.815739210335516
596,-24.29589035722252
597,100.0
2,2, 5, 4, 0,22,30.00,40.00,Thursday
148,28.781537295499395
596,-24.356267773885255
597,100.0
2,2, 5, 4, 0,22,40.00,50.00,Thursday
148,28.75100876984801
596,-24.478638148578928
597,100.0
2,2, 5, 4, 0,22,50.00,60.00,Thursday
148,28.763353092197009
596,-24.550518554695555
597,100.0
2,2, 5, 4, 0,23, 0.00,10.00,Thursday
148,28.723898075977087
596,-24.682476388760706
597,100.0
2,2, 5, 4, 0,23,10.00,20.00,Thursday
148,28.684917598356305
596,-24.85060968586025
597,100.0
2,2, 5, 4, 0,23,20.00,30.00,Thursday
148,28.61269608753047
596,-25.04688000844988
597,100.0
2,2, 5, 4, 0,23,30.00,40.00,Thursday
148,28.539742411587836
596,-25.268795845178358
597,100.0
2,2, 5, 4, 0,23,40.00,50.00,Thursday
148,28.45106400901329
596,-25.5017437364609
597,100.0
2,2, 5, 4, 0,23,50.00,60.00,Thursday
148,28.39303754667118
596,-25.633076381331767
597,100.0
2,2, 5, 4, 0,24, 0.00,10.00,Thursday
148,28.362960774094579
596,-25.72342602632405
597,100.0
2,2, 5, 4, 0,24,10.00,20.00,Thursday
148,28.259261484687
596,-25.96685601486204
597,100.0
2,2, 5, 4, 0,24,20.00,30.00,Thursday
148,28.192452763164789
596,-26.166140484601166
597,100.0
2,2, 5, 4, 0,24,30.00,40.00,Thursday
148,28.168356242415685
596,-26.288492138927717
597,100.0
2,2, 5, 4, 0,24,40.00,50.00,Thursday
148,28.113607629092944
596,-26.505186632394297
597,100.0
2,2, 5, 4, 0,24,50.00,60.00,Thursday
148,27.996166222347687
596,-26.760923221424585
597,100.0
2,3, 5, 5, 0, 1, 0.00,10.00,Friday
148,27.8869198026218
596,-27.041650161888265
597,100.0
2,3, 5, 5, 0, 1,10.00,20.00,Friday
148,27.84564421370183
596,-27.16383952494629
597,100.0
2,3, 5, 5, 0, 1,20.00,30.00,Friday
148,27.81723668232017
596,-27.292109939586135
597,100.0
2,3, 5, 5, 0, 1,30.00,40.00,Friday
148,27.79665347067995
596,-27.37504800771423
597,100.0
2,3, 5, 5, 0, 1,40.00,50.00,Friday
148,27.690912267864989
596,-27.65673561048075
597,100.0
2,3, 5, 5, 0, 1,50.00,60.00,Friday
148,27.658238538964264
596,-27.776089668249776
597,100.0
2,3, 5, 5, 0, 2, 0.00,10.00,Friday
148,27.62323335292482
596,-27.919281299251176
597,100.0
2,3, 5, 5, 0, 2,10.00,20.00,Friday
148,27.56954289735942
596,-28.118702456053606
597,100.0
2,3, 5, 5, 0, 2,20.00,30.00,Friday
148,27.442815182428867
596,-28.434319997485518
597,100.0
2,3, 5, 5, 0, 2,30.00,40.00,Friday