Program Version,EnergyPlus, Version 9.5.0-de239b2e5f, YMD=2021.12.08 22:30
1,5,Environment Title[],Latitude[deg],Longitude[deg],Time Zone[],Elevation[m]
2,8,Day of Simulation[],Month[],Day of Month[],DST Indicator[1=yes 0=no],Hour[],StartMinute[],EndMinute[],DayType
3,5,Cumulative Day of Simulation[],Month[],Day of Month[],DST Indicator[1=yes 0=no],DayType  ! When Daily Report Variables Requested
4,2,Cumulative Days of Simulation[],Month[]  ! When Monthly Report Variables Requested
5,1,Cumulative Days of Simulation[] ! When Run Period Report Variables Requested
6,1,Calendar Year of Simulation[] ! When Annual Report Variables Requested
148,1,THERMAL ZONE: JORGE,Zone Mean Air Temperature [C] !TimeStep
596,1,JORGE,Zone Thermal Comfort Fanger Model PMV [] !TimeStep
597,1,JORGE,Zone Thermal Comfort Fanger Model PPD [%] !TimeStep
End of Data Dictionary
1,RUN PERIOD 1,  18.85, -99.14,  -6.00,1280.00
2,1, 5, 3, 0, 1, 0.00,10.00,Wednesday
148,26.3895439963995
596,-31.178016221796115
597,100.0
2,1, 5, 3, 0, 1,10.00,20.00,Wednesday
148,26.354786136033736
596,-31.31441977024983
597,100.0
2,1, 5, 3, 0, 1,20.00,30.00,Wednesday
148,26.381653992834808
596,-31.310655571248487
597,100.0
2,1, 5, 3, 0, 1,30.00,40.00,Wednesday
148,26.35576262567383
596,-31.429871134948443
597,100.0
2,1, 5, 3, 0, 1,40.00,50.00,Wednesday
148,26.24397053434231
596,-31.695401936218997
597,100.0
2,1, 5, 3, 0, 1,50.00,60.00,Wednesday
148,26.043775182723299
596,-32.12249921058548
597,100.0
2,1, 5, 3, 0, 2, 0.00,10.00,Wednesday
148,25.87961449321876
596,-32.499409608530239
597,100.0
2,1, 5, 3, 0, 2,10.00,20.00,Wednesday
148,25.76800272044813
596,-32.78848623543509
597,100.0
2,1, 5, 3, 0, 2,20.00,30.00,Wednesday
148,25.526752561652839
596,-33.305311208471049
597,100.0
2,1, 5, 3, 0, 2,30.00,40.00,Wednesday
148,25.396382157573997
596,-33.62056893876908
597,100.0
2,1, 5, 3, 0, 2,40.00,50.00,Wednesday
148,25.358542323956227
596,-33.76082617162328
597,100.0
2,1, 5, 3, 0, 2,50.00,60.00,Wednesday
148,25.41156552453495
596,-33.750153944734218
597,100.0
2,1, 5, 3, 0, 3, 0.00,10.00,Wednesday
148,25.437440566943338
596,-33.786322228891368
597,100.0
2,1, 5, 3, 0, 3,10.00,20.00,Wednesday
148,25.57753581918275
596,-33.60770298231942
597,100.0
2,1, 5, 3, 0, 3,20.00,30.00,Wednesday
148,25.6804701506187
596,-33.480274090314619
597,100.0
2,1, 5, 3, 0, 3,30.00,40.00,Wednesday
148,25.616182548913196
596,-33.67229134391367
597,100.0
2,1, 5, 3, 0, 3,40.00,50.00,Wednesday
148,25.553767467863506
596,-33.842381888247988
597,100.0
2,1, 5, 3, 0, 3,50.00,60.00,Wednesday
148,25.493742371940099
596,-34.03645243830455
597,100.0
2,1, 5, 3, 0, 4, 0.00,10.00,Wednesday
148,25.436258794586416
596,-34.215510244199489
597,100.0
2,1, 5, 3, 0, 4,10.00,20.00,Wednesday
148,25.327087515765088
596,-34.470892110701267
597,100.0
2,1, 5, 3, 0, 4,20.00,30.00,Wednesday
148,25.30339762832937
596,-34.61426875314871
597,100.0
2,1, 5, 3, 0, 4,30.00,40.00,Wednesday
148,25.01448171412482
596,-35.225657105032038
597,100.0
2,1, 5, 3, 0, 4,40.00,50.00,Wednesday
148,24.628208534203229
596,-36.06462039815434
597,100.0
2,1, 5, 3, 0, 4,50.00,60.00,Wednesday
148,24.46670652249624
596,-36.46004184401363
597,100.0
2,1, 5, 3, 0, 5, 0.00,10.00,Wednesday
148,24.39846214502206
596,-36.6916768164431
597,100.0
2,1, 5, 3, 0, 5,10.00,20.00,Wednesday
148,24.58184932401408
596,-36.4447649781232
597,100.0
2,1, 5, 3, 0, 5,20.00,30.00,Wednesday
148,24.74516497240124
596,-36.18169219099083
597,100.0
2,1, 5, 3, 0, 5,30.00,40.00,Wednesday
148,24.85690832821253
596,-36.03919447715676
597,100.0
2,1, 5, 3, 0, 5,40.00,50.00,Wednesday
148,24.780150694279294
596,-36.20673621085436
597,100.0
2,1, 5, 3, 0, 5,50.00,60.00,Wednesday
148,24.524538451096374
596,-36.774632521170378
597,100.0
2,1, 5, 3, 0, 6, 0.00,10.00,Wednesday
148,24.31149225630138
596,-37.23569130554089
597,100.0
2,1, 5, 3, 0, 6,10.00,20.00,Wednesday
148,24.098668316482546
596,-37.78089669855613
597,100.0
2,1, 5, 3, 0, 6,20.00,30.00,Wednesday
148,24.053111836880125
596,-37.93452525574056
597,100.0
2,1, 5, 3, 0, 6,30.00,40.00,Wednesday
148,23.87882360110221
596,-38.39397375802148
597,100.0
2,1, 5, 3, 0, 6,40.00,50.00,Wednesday
148,23.7011242957258
596,-38.79345078112028
597,100.0
2,1, 5, 3, 0, 6,50.00,60.00,Wednesday
148,23.579148487431703
596,-39.11366692148656
597,100.0
2,1, 5, 3, 0, 7, 0.00,10.00,Wednesday
148,23.626716982545078
596,-39.08779433041959
597,100.0
2,1, 5, 3, 0, 7,10.00,20.00,Wednesday
148,23.80782786537604
596,-38.783644390960407
597,100.0
2,1, 5, 3, 0, 7,20.00,30.00,Wednesday
148,23.88465649427856
596,-38.71365252727025
597,100.0
2,1, 5, 3, 0, 7,30.00,40.00,Wednesday
148,23.54368827879197
596,-39.42567720594372
597,100.0
2,1, 5, 3, 0, 7,40.00,50.00,Wednesday
148,23.372544274412254
596,-39.79989202539275
597,100.0
2,1, 5, 3, 0, 7,50.00,60.00,Wednesday
148,23.76322674467911
596,-39.05148822848804
597,100.0
2,1, 5, 3, 0, 8, 0.00,10.00,Wednesday
148,23.978440507241865
596,-38.61839007868562
597,100.0
2,1, 5, 3, 0, 8,10.00,20.00,Wednesday
148,23.737017170121427
596,-39.07505450422875
597,100.0
2,1, 5, 3, 0, 8,20.00,30.00,Wednesday
148,23.790649572735917
596,-38.927317850083408
597,100.0
2,1, 5, 3, 0, 8,30.00,40.00,Wednesday
148,23.935314392096747
596,-38.59076248828775
597,100.0
2,1, 5, 3, 0, 8,40.00,50.00,Wednesday
148,24.158114628962428
596,-38.07323709329984
597,100.0
2,1, 5, 3, 0, 8,50.00,60.00,Wednesday
148,24.41527927004434
596,-37.47602551765728
597,100.0
2,1, 5, 3, 0, 9, 0.00,10.00,Wednesday
148,24.925549549743378
596,-36.36094133377313
597,100.0
2,1, 5, 3, 0, 9,10.00,20.00,Wednesday
148,25.194207160591334
596,-35.80339628826247
597,100.0
2,1, 5, 3, 0, 9,20.00,30.00,Wednesday
148,25.279845093943373
596,-35.571191608264609
597,100.0
2,1, 5, 3, 0, 9,30.00,40.00,Wednesday
148,25.32077528896177
596,-35.40062156156843
597,100.0
2,1, 5, 3, 0, 9,40.00,50.00,Wednesday
148,25.399283758860269
596,-35.12727091925596
597,100.0
2,1, 5, 3, 0, 9,50.00,60.00,Wednesday
148,25.501861397186177
596,-34.82593072158859
597,100.0
2,1, 5, 3, 0,10, 0.00,10.00,Wednesday
148,27.52334037131444
596,0.037250635167766759
597,5.0287260064080219
2,1, 5, 3, 0,10,10.00,20.00,Wednesday
148,27.84604929323961
596,0.15077070973440663
597,5.471034123177816
2,1, 5, 3, 0,10,20.00,30.00,Wednesday
148,28.137746813202594
596,0.22348338532343754
597,6.036136786148035
2,1, 5, 3, 0,10,30.00,40.00,Wednesday
148,28.631424019368859
596,0.3525314626326449
597,7.585975625910024
2,1, 5, 3, 0,10,40.00,50.00,Wednesday
148,28.78125330558666
596,0.41161806086211119
597,8.5314043936379
2,1, 5, 3, 0,10,50.00,60.00,Wednesday
148,28.74794221737062
596,0.4209668155074787
597,8.694669161693725
2,1, 5, 3, 0,11, 0.00,10.00,Wednesday
148,28.675469430030753
596,0.4132765164354729
597,8.560094028880656
2,1, 5, 3, 0,11,10.00,20.00,Wednesday
148,28.89156348847105
596,0.4797496274249003
597,9.80726408211163
2,1, 5, 3, 0,11,20.00,30.00,Wednesday
148,29.134520558971109
596,0.5547983626586207
597,11.44442513970418
2,1, 5, 3, 0,11,30.00,40.00,Wednesday
148,29.265682645480099
596,0.603805283351643
597,12.64520309732849
2,1, 5, 3, 0,11,40.00,50.00,Wednesday
148,29.33930093712351
596,0.6372388570527967
597,13.524204182723466
2,1, 5, 3, 0,11,50.00,60.00,Wednesday
148,29.442141007579936
596,0.67683302371577
597,14.627869092440705
2,1, 5, 3, 0,12, 0.00,10.00,Wednesday
148,29.60133614498988
596,0.7353795433645722
597,16.384029667512495
2,1, 5, 3, 0,12,10.00,20.00,Wednesday
148,29.698879542269958
596,0.7655051053038547
597,17.34511550437952
2,1, 5, 3, 0,12,20.00,30.00,Wednesday
148,29.927858126592896
596,0.8435723200652234
597,20.01519132537919
2,1, 5, 3, 0,12,30.00,40.00,Wednesday
148,30.045453473541273
596,0.8845048424658687
597,21.517129681836538
2,1, 5, 3, 0,12,40.00,50.00,Wednesday
148,30.237239111705894
596,0.9479649756457319
597,23.980748000469676
2,1, 5, 3, 0,12,50.00,60.00,Wednesday
148,30.416271779675655
596,1.007358557469681
597,26.43051332948332
2,1, 5, 3, 0,13, 0.00,10.00,Wednesday
148,30.637383457457586
596,1.082013755484954
597,29.6972251917891
2,1, 5, 3, 0,13,10.00,20.00,Wednesday
148,30.75744696034565
596,1.1207912623194323
597,31.47165712694155
2,1, 5, 3, 0,13,20.00,30.00,Wednesday
148,30.83725644156588
596,1.1578505986872317
597,33.21395095268501
2,1, 5, 3, 0,13,30.00,40.00,Wednesday
148,30.928671690402035
596,1.1842977030546429
597,34.48367308659557
2,1, 5, 3, 0,13,40.00,50.00,Wednesday
148,31.049199270692936
596,1.2090267209764223
597,35.689754095122768
2,1, 5, 3, 0,13,50.00,60.00,Wednesday
148,31.11745546358346
596,1.230224263756869
597,36.73741501099214
2,1, 5, 3, 0,14, 0.00,10.00,Wednesday
148,31.12706687696558
596,1.2625584510022286
597,38.35867088129312
2,1, 5, 3, 0,14,10.00,20.00,Wednesday
148,31.27872299320906
596,1.3322383131340366
597,41.93799635094503
2,1, 5, 3, 0,14,20.00,30.00,Wednesday
148,31.428534815373096
596,1.382582071984345
597,44.58576217881348
2,1, 5, 3, 0,14,30.00,40.00,Wednesday
148,31.516674713278886
596,1.4181616161375042
597,46.48209444803454
2,1, 5, 3, 0,14,40.00,50.00,Wednesday
148,31.75869765374187
596,1.4912840172719482
597,50.42689594369966
2,1, 5, 3, 0,14,50.00,60.00,Wednesday
148,32.11281313003004
596,1.5790745239337832
597,55.2058228311
2,1, 5, 3, 0,15, 0.00,10.00,Wednesday
148,31.779700397374066
596,-23.260240376040089
597,100.0
2,1, 5, 3, 0,15,10.00,20.00,Wednesday
148,31.722166419284766
596,-23.252003222670188
597,100.0
2,1, 5, 3, 0,15,20.00,30.00,Wednesday
148,31.941706711804753
596,-22.48792181333811
597,100.0
2,1, 5, 3, 0,15,30.00,40.00,Wednesday
148,32.07543873390243
596,-21.974194542908419
597,100.0
2,1, 5, 3, 0,15,40.00,50.00,Wednesday
148,32.17559184367773
596,-21.717102766030036
597,100.0
2,1, 5, 3, 0,15,50.00,60.00,Wednesday
148,32.292764499329468
596,-21.283159771993554
597,100.0
2,1, 5, 3, 0,16, 0.00,10.00,Wednesday
148,32.403563009531207
596,-20.82588535421994
597,100.0
2,1, 5, 3, 0,16,10.00,20.00,Wednesday
148,32.51927613071222
596,-20.57561183285162
597,100.0
2,1, 5, 3, 0,16,20.00,30.00,Wednesday
148,32.54111526759868
596,-20.50991103757137
597,100.0
2,1, 5, 3, 0,16,30.00,40.00,Wednesday
148,32.60432201815888
596,1.0075149355080309
597,26.437141729396715
2,1, 5, 3, 0,16,40.00,50.00,Wednesday
148,32.76834775161593
596,1.0757903322016085
597,29.417255603965559
2,1, 5, 3, 0,16,50.00,60.00,Wednesday
148,32.594207963435049
596,0.9664986617848986
597,24.730528710876756
2,1, 5, 3, 0,17, 0.00,10.00,Wednesday
148,32.405519944521589
596,1.8465547880222757
597,69.39838372442286
2,1, 5, 3, 0,17,10.00,20.00,Wednesday
148,32.22480500639647
596,1.8003982710502414
597,67.04073901841237
2,1, 5, 3, 0,17,20.00,30.00,Wednesday
148,31.91364564563696
596,1.7204770202116476
597,62.844964855125009
2,1, 5, 3, 0,17,30.00,40.00,Wednesday
148,31.715912818199404
596,1.6716771857800268
597,60.23011444726637
2,1, 5, 3, 0,17,40.00,50.00,Wednesday
148,31.663879196791397
596,1.6558271457039598
597,59.37463420553484
2,1, 5, 3, 0,17,50.00,60.00,Wednesday
148,31.691906768684477
596,1.669433991303619
597,60.10919998474832
2,1, 5, 3, 0,18, 0.00,10.00,Wednesday
148,31.588038840649796
596,1.653059281413327
597,59.22498994177336
2,1, 5, 3, 0,18,10.00,20.00,Wednesday
148,31.506108945525257
596,1.6417671090884325
597,58.613778555354759
2,1, 5, 3, 0,18,20.00,30.00,Wednesday
148,31.522139185332965
596,1.6546544504217944
597,59.311241234851419
2,1, 5, 3, 0,18,30.00,40.00,Wednesday
148,31.548751272680243
596,1.669343254053907
597,60.1043078468451
2,1, 5, 3, 0,18,40.00,50.00,Wednesday
148,31.62864513845555
596,1.6948926365414945
597,61.47804251211372
2,1, 5, 3, 0,18,50.00,60.00,Wednesday
148,31.776000037134517
596,1.7312663236535964
597,63.41840483823742
2,1, 5, 3, 0,19, 0.00,10.00,Wednesday
148,30.26308270560408
596,-21.315651043815394
597,100.0
2,1, 5, 3, 0,19,10.00,20.00,Wednesday
148,29.885681214218307
596,-22.020788729731078
597,100.0
2,1, 5, 3, 0,19,20.00,30.00,Wednesday
148,29.693216988985215
596,-22.41909356972713
597,100.0
2,1, 5, 3, 0,19,30.00,40.00,Wednesday
148,29.23253001819407
596,-23.089684264277396
597,100.0
2,1, 5, 3, 0,19,40.00,50.00,Wednesday
148,28.969276049998599
596,-23.540861436691274
597,100.0
2,1, 5, 3, 0,19,50.00,60.00,Wednesday
148,28.895041505351079
596,-23.810267452096498
597,100.0
2,1, 5, 3, 0,20, 0.00,10.00,Wednesday
148,28.879060327844699
596,-23.92907584899379
597,100.0
2,1, 5, 3, 0,20,10.00,20.00,Wednesday
148,28.81549858314245
596,-24.12557091705923
597,100.0
2,1, 5, 3, 0,20,20.00,30.00,Wednesday
148,28.650585694726744
596,-24.495091351586259
597,100.0
2,1, 5, 3, 0,20,30.00,40.00,Wednesday
148,28.48908417648432
596,-24.836325908521784
597,100.0
2,1, 5, 3, 0,20,40.00,50.00,Wednesday
148,28.226921423113845
596,-25.35901334551701
597,100.0
2,1, 5, 3, 0,20,50.00,60.00,Wednesday
148,28.092330865211165
596,-25.717499213146469
597,100.0
2,1, 5, 3, 0,21, 0.00,10.00,Wednesday
148,27.93461869500219
596,-26.10532823515319
597,100.0
2,1, 5, 3, 0,21,10.00,20.00,Wednesday
148,27.79015450093588
596,-26.45208917202732
597,100.0
2,1, 5, 3, 0,21,20.00,30.00,Wednesday
148,27.547988176302263
596,-27.002122144570998
597,100.0
2,1, 5, 3, 0,21,30.00,40.00,Wednesday
148,27.14783101047317
596,-27.80143992120895
597,100.0
2,1, 5, 3, 0,21,40.00,50.00,Wednesday
148,27.246111861894076
596,-27.73867650119738
597,100.0
2,1, 5, 3, 0,21,50.00,60.00,Wednesday
148,27.14515277238835
596,-28.022903420536804
597,100.0
2,1, 5, 3, 0,22, 0.00,10.00,Wednesday
148,27.153880091914478
596,-28.072829582701698
597,100.0
2,1, 5, 3, 0,22,10.00,20.00,Wednesday
148,27.099026090545818
596,-28.24243979040512
597,100.0
2,1, 5, 3, 0,22,20.00,30.00,Wednesday
148,26.872533083842357
596,-28.810162237855577
597,100.0
2,1, 5, 3, 0,22,30.00,40.00,Wednesday
148,26.770562848019997
596,-29.10701224259686
597,100.0
2,1, 5, 3, 0,22,40.00,50.00,Wednesday
148,26.846251995227953
596,-29.052466166185075
597,100.0
2,1, 5, 3, 0,22,50.00,60.00,Wednesday
148,26.83003146830115
596,-29.167469704689819
597,100.0
2,1, 5, 3, 0,23, 0.00,10.00,Wednesday
148,27.00008841675594
596,-28.984715637983866
597,100.0
2,1, 5, 3, 0,23,10.00,20.00,Wednesday
148,26.95113446059179
596,-29.08400965037719
597,100.0
2,1, 5, 3, 0,23,20.00,30.00,Wednesday
148,26.87948359466946
596,-29.29878591940809
597,100.0
2,1, 5, 3, 0,23,30.00,40.00,Wednesday
148,27.003675266351246
596,-29.22807183080516
597,100.0
2,1, 5, 3, 0,23,40.00,50.00,Wednesday
148,27.04362309588426
596,-29.227468915342237
597,100.0
2,1, 5, 3, 0,23,50.00,60.00,Wednesday
148,26.977429867649574
596,-29.38521742624932
597,100.0
2,1, 5, 3, 0,24, 0.00,10.00,Wednesday
148,26.987748598360093
596,-29.43691550284789
597,100.0
2,1, 5, 3, 0,24,10.00,20.00,Wednesday
148,27.01046063480886
596,-29.481853045467017
597,100.0
2,1, 5, 3, 0,24,20.00,30.00,Wednesday
148,26.913969116550829
596,-29.716190536884985
597,100.0
2,1, 5, 3, 0,24,30.00,40.00,Wednesday
148,26.850715824682689
596,-29.889981497646258
597,100.0
2,1, 5, 3, 0,24,40.00,50.00,Wednesday
148,26.71943755227152
596,-30.191220961982166
597,100.0
2,1, 5, 3, 0,24,50.00,60.00,Wednesday
148,26.658899277589918
596,-30.365303751653739
597,100.0
2,2, 5, 4, 0, 1, 0.00,10.00,Thursday
148,26.83219814265203
596,-30.162086326235558
597,100.0
2,2, 5, 4, 0, 1,10.00,20.00,Thursday
148,26.9237855371978
596,-30.092801422129296
597,100.0
2,2, 5, 4, 0, 1,20.00,30.00,Thursday
148,26.800703346002576
596,-30.357622563084747
597,100.0
2,2, 5, 4, 0, 1,30.00,40.00,Thursday
148,26.564893755811249
596,-30.842012326780425
597,100.0
2,2, 5, 4, 0, 1,40.00,50.00,Thursday
148,26.5088738346474
596,-30.99316015359731
597,100.0
2,2, 5, 4, 0, 1,50.00,60.00,Thursday
148,26.565011724974196
596,-30.95820766064023
597,100.0
2,2, 5, 4, 0, 2, 0.00,10.00,Thursday
148,26.661024014456868
596,-30.85269341691968
597,100.0
2,2, 5, 4, 0, 2,10.00,20.00,Thursday
148,26.637973231424924
596,-30.949280359459114
597,100.0
2,2, 5, 4, 0, 2,20.00,30.00,Thursday
148,26.618596760141373
596,-31.02691994303304
597,100.0
2,2, 5, 4, 0, 2,30.00,40.00,Thursday
148,26.54479061283723
596,-31.215861927077634
597,100.0
2,2, 5, 4, 0, 2,40.00,50.00,Thursday
148,26.452492402391209
596,-31.430383379519104
597,100.0
2,2, 5, 4, 0, 2,50.00,60.00,Thursday
148,26.389417570271215
596,-31.609154541675779
597,100.0
2,2, 5, 4, 0, 3, 0.00,10.00,Thursday
148,26.400762051736245
596,-31.67044289858138
597,100.0
2,2, 5, 4, 0, 3,10.00,20.00,Thursday
148,26.283669241271825
596,-31.963522120195298
597,100.0
2,2, 5, 4, 0, 3,20.00,30.00,Thursday
148,26.260714184247214
596,-32.09071633467638
597,100.0
2,2, 5, 4, 0, 3,30.00,40.00,Thursday
148,26.08779478372563
596,-32.46724806136819
597,100.0
2,2, 5, 4, 0, 3,40.00,50.00,Thursday
148,25.94157994332911
596,-32.78679073814848
597,100.0
2,2, 5, 4, 0, 3,50.00,60.00,Thursday
148,25.958077366316855
596,-32.86367870199831
597,100.0
2,2, 5, 4, 0, 4, 0.00,10.00,Thursday
148,25.900756037017588
596,-33.058820479639347
597,100.0
2,2, 5, 4, 0, 4,10.00,20.00,Thursday
148,25.79414907614249
596,-33.32652070464797
597,100.0
2,2, 5, 4, 0, 4,20.00,30.00,Thursday
148,25.698329379173758
596,-33.578939135567718
597,100.0
2,2, 5, 4, 0, 4,30.00,40.00,Thursday
148,25.575832904385046
596,-33.87684871726551
597,100.0
2,2, 5, 4, 0, 4,40.00,50.00,Thursday
148,25.48875224006566
596,-34.09143069249653
597,100.0
2,2, 5, 4, 0, 4,50.00,60.00,Thursday
148,25.467186292953298
596,-34.17241153304013
597,100.0
2,2, 5, 4, 0, 5, 0.00,10.00,Thursday
148,25.394361245446257
596,-34.40504131383037
597,100.0
2,2, 5, 4, 0, 5,10.00,20.00,Thursday
148,25.29064518307141
596,-34.66915312021002
597,100.0
2,2, 5, 4, 0, 5,20.00,30.00,Thursday
148,25.13602924989339
596,-34.97976193479324
597,100.0
2,2, 5, 4, 0, 5,30.00,40.00,Thursday
148,25.070044331132356
596,-35.162723172584509
597,100.0
2,2, 5, 4, 0, 5,40.00,50.00,Thursday
148,25.060467457259518
596,-35.28540350901045
597,100.0
2,2, 5, 4, 0, 5,50.00,60.00,Thursday
148,24.998103190363424
596,-35.48640341068483
597,100.0
2,2, 5, 4, 0, 6, 0.00,10.00,Thursday
148,25.017867535007445
596,-35.49522453768432
597,100.0
2,2, 5, 4, 0, 6,10.00,20.00,Thursday
148,24.702548240643109
596,-36.180610686245618
597,100.0
2,2, 5, 4, 0, 6,20.00,30.00,Thursday
148,24.479536075594436
596,-36.67374094642256
597,100.0
2,2, 5, 4, 0, 6,30.00,40.00,Thursday
148,24.25035121287451
596,-37.21432443384443
597,100.0
2,2, 5, 4, 0, 6,40.00,50.00,Thursday
148,24.076927541069446
596,-37.62144718785251
597,100.0
2,2, 5, 4, 0, 6,50.00,60.00,Thursday
148,24.122769978758428
596,-37.56662570917253
597,100.0
2,2, 5, 4, 0, 7, 0.00,10.00,Thursday
148,24.355839955346466
596,-37.18612597353337
597,100.0
2,2, 5, 4, 0, 7,10.00,20.00,Thursday
148,24.590038885914944
596,-36.783821866173088
597,100.0
2,2, 5, 4, 0, 7,20.00,30.00,Thursday
148,24.392041247759395
596,-37.184484579081487
597,100.0
2,2, 5, 4, 0, 7,30.00,40.00,Thursday
148,24.50768235700716
596,-37.04647848618137
597,100.0
2,2, 5, 4, 0, 7,40.00,50.00,Thursday
148,24.63832650832631
596,-36.80160145000233
597,100.0
2,2, 5, 4, 0, 7,50.00,60.00,Thursday
148,24.72284767269073
596,-36.65180548974426
597,100.0
2,2, 5, 4, 0, 8, 0.00,10.00,Thursday
148,24.738718417362688
596,-36.626557230018359
597,100.0
2,2, 5, 4, 0, 8,10.00,20.00,Thursday
148,24.668832556546744
596,-36.73412720925931
597,100.0
2,2, 5, 4, 0, 8,20.00,30.00,Thursday
148,24.57942373348806
596,-36.87663370168632
597,100.0
2,2, 5, 4, 0, 8,30.00,40.00,Thursday
148,24.623958230342205
596,-36.73226423779062
597,100.0
2,2, 5, 4, 0, 8,40.00,50.00,Thursday
148,24.761278195648253
596,-36.382114471157958
597,100.0
2,2, 5, 4, 0, 8,50.00,60.00,Thursday
148,25.018097232864436
596,-35.8359219101959
597,100.0
2,2, 5, 4, 0, 9, 0.00,10.00,Thursday
148,25.139812927854558
596,-35.54137892809885
597,100.0
2,2, 5, 4, 0, 9,10.00,20.00,Thursday
148,25.277445492255425
596,-35.296915613171247
597,100.0
2,2, 5, 4, 0, 9,20.00,30.00,Thursday
148,25.47515534194555
596,-34.7920795490918
597,100.0
2,2, 5, 4, 0, 9,30.00,40.00,Thursday
148,25.66786724567751
596,-34.332375265822438
597,100.0
2,2, 5, 4, 0, 9,40.00,50.00,Thursday
148,25.81376043812827
596,-33.933649446346489
597,100.0
2,2, 5, 4, 0, 9,50.00,60.00,Thursday
148,25.885076991652967
596,-33.79502554763132
597,100.0
2,2, 5, 4, 0,10, 0.00,10.00,Thursday
148,27.707256917807283
596,0.08504736600516422
597,5.149776299792563
2,2, 5, 4, 0,10,10.00,20.00,Thursday
148,27.902188512113619
596,0.15986721035930769
597,5.529652182503185
2,2, 5, 4, 0,10,20.00,30.00,Thursday
148,28.201990749766887
596,0.23802016016711723
597,6.175646548102492
2,2, 5, 4, 0,10,30.00,40.00,Thursday
148,28.613842692846313
596,0.3396332244235331
597,7.399381118870693
2,2, 5, 4, 0,10,40.00,50.00,Thursday
148,28.751004294545088
596,0.3920193627468117
597,8.201284022333951
2,2, 5, 4, 0,10,50.00,60.00,Thursday
148,28.833451232017823
596,0.43232172296421236
597,8.898010084690683
2,2, 5, 4, 0,11, 0.00,10.00,Thursday
148,28.940778820227455
596,0.47476313116946
597,9.707109309569347
2,2, 5, 4, 0,11,10.00,20.00,Thursday
148,29.046733888437588
596,0.5144513256792878
597,10.53398501356287
2,2, 5, 4, 0,11,20.00,30.00,Thursday
148,29.141674997516348
596,0.5497689800121075
597,11.327088297152372
2,2, 5, 4, 0,11,30.00,40.00,Thursday
148,29.289725800937249
596,0.6037436779583618
597,12.64362820618149
2,2, 5, 4, 0,11,40.00,50.00,Thursday
148,29.411107784292338
596,0.6391018842458378
597,13.57461151932094
2,2, 5, 4, 0,11,50.00,60.00,Thursday
148,29.557104631210757
596,0.6959367427473698
597,15.18464667702392
2,2, 5, 4, 0,12, 0.00,10.00,Thursday
148,29.73267160791776
596,0.7616016020528643
597,17.218393078713349
2,2, 5, 4, 0,12,10.00,20.00,Thursday
148,29.926864385976644
596,0.8189034390323277
597,19.143674761044055
2,2, 5, 4, 0,12,20.00,30.00,Thursday
148,30.089297101538685
596,0.8804502615536541
597,21.365271534711625
2,2, 5, 4, 0,12,30.00,40.00,Thursday
148,30.23283137769183
596,0.9234681167752714
597,23.01055713762375
2,2, 5, 4, 0,12,40.00,50.00,Thursday
148,30.337611593249969
596,0.9607623650448591
597,24.497028355906239
2,2, 5, 4, 0,12,50.00,60.00,Thursday
148,30.390996638625574
596,0.9817362527587041
597,25.356996945436678
2,2, 5, 4, 0,13, 0.00,10.00,Thursday
148,30.53991989675587
596,1.0353870782718342
597,27.63315148344273
2,2, 5, 4, 0,13,10.00,20.00,Thursday
148,30.765372609045948
596,1.1190587241536827
597,31.391295974387988
2,2, 5, 4, 0,13,20.00,30.00,Thursday
148,30.913165875925278
596,1.1646741674738408
597,33.53950069783005
2,2, 5, 4, 0,13,30.00,40.00,Thursday
148,31.028104717050519
596,1.2040234919980924
597,35.44431087732261
2,2, 5, 4, 0,13,40.00,50.00,Thursday
148,31.13394642692608
596,1.2382813930563639
597,37.13884500600743
2,2, 5, 4, 0,13,50.00,60.00,Thursday
148,31.28796415457751
596,1.2889828927543994
597,39.70306177395128
2,2, 5, 4, 0,14, 0.00,10.00,Thursday
148,31.390609377643814
596,1.3321164382544653
597,41.93164395718836
2,2, 5, 4, 0,14,10.00,20.00,Thursday
148,31.484151308018647
596,1.3570294157515124
597,43.23613927170454
2,2, 5, 4, 0,14,20.00,30.00,Thursday
148,31.530442514031294
596,1.370719706938365
597,43.95784131534589
2,2, 5, 4, 0,14,30.00,40.00,Thursday
148,31.55642970926468
596,1.3839062787838519
597,44.65599992445565
2,2, 5, 4, 0,14,40.00,50.00,Thursday
148,31.61924206512476
596,1.3936539253856804
597,45.17387472059915
2,2, 5, 4, 0,14,50.00,60.00,Thursday
148,31.76491632276023
596,1.4651178272787702
597,49.00941981429836
2,2, 5, 4, 0,15, 0.00,10.00,Thursday
148,31.909680491819157
596,-22.864705424685068
597,100.0
2,2, 5, 4, 0,15,10.00,20.00,Thursday
148,31.86406343584182
596,-22.962935718763104
597,100.0
2,2, 5, 4, 0,15,20.00,30.00,Thursday
148,31.898653626907796
596,-22.919569432881219
597,100.0
2,2, 5, 4, 0,15,30.00,40.00,Thursday
148,31.89979249330402
596,-22.999716138277426
597,100.0
2,2, 5, 4, 0,15,40.00,50.00,Thursday
148,31.91431110681239
596,-22.906988027969978
597,100.0
2,2, 5, 4, 0,15,50.00,60.00,Thursday
148,32.01060739156227
596,-22.51875132890595
597,100.0
2,2, 5, 4, 0,16, 0.00,10.00,Thursday
148,32.22868425022793
596,-21.758520521901678
597,100.0
2,2, 5, 4, 0,16,10.00,20.00,Thursday
148,32.4259092169049
596,-21.077178748555075
597,100.0
2,2, 5, 4, 0,16,20.00,30.00,Thursday
148,32.546855118805229
596,-20.739507477774777
597,100.0
2,2, 5, 4, 0,16,30.00,40.00,Thursday
148,32.67523656808313
596,0.9936510484065672
597,25.85308761552477
2,2, 5, 4, 0,16,40.00,50.00,Thursday
148,32.69827729194455
596,0.9936492297298955
597,25.85301147770707
2,2, 5, 4, 0,16,50.00,60.00,Thursday
148,32.64488524953604
596,0.9721935145401239
597,24.963610109489978
2,2, 5, 4, 0,17, 0.00,10.00,Thursday
148,32.66458332909997
596,1.8847572062456959
597,71.30517657869392
2,2, 5, 4, 0,17,10.00,20.00,Thursday
148,32.80736749590709
596,1.9197006528918149
597,73.00943275307101
2,2, 5, 4, 0,17,20.00,30.00,Thursday
148,32.74229684765038
596,1.906481013562895
597,72.36941339534143
2,2, 5, 4, 0,17,30.00,40.00,Thursday
148,32.79663706958509
596,1.9303516354376667
597,73.52074672201496
2,2, 5, 4, 0,17,40.00,50.00,Thursday
148,32.73484140171196
596,1.9155941257599194
597,72.81125027246482
2,2, 5, 4, 0,17,50.00,60.00,Thursday
148,32.712010339996897
596,1.8982365757816898
597,71.96731867499713
2,2, 5, 4, 0,18, 0.00,10.00,Thursday
148,32.64111196535694
596,1.8836929331754806
597,71.25265163129768
2,2, 5, 4, 0,18,10.00,20.00,Thursday
148,32.65071629264715
596,1.889464147908574
597,71.5370510827392
2,2, 5, 4, 0,18,20.00,30.00,Thursday
148,32.6973071733896
596,1.9079019640476228
597,72.43848907839316
2,2, 5, 4, 0,18,30.00,40.00,Thursday
148,32.777303366973878
596,1.9306299208968632
597,73.53405318247482
2,2, 5, 4, 0,18,40.00,50.00,Thursday
148,32.844108226885939
596,1.9477540403793994
597,74.34755433397749
2,2, 5, 4, 0,18,50.00,60.00,Thursday
148,32.788333695146288
596,1.9298440088221958
597,73.49646711044417
2,2, 5, 4, 0,19, 0.00,10.00,Thursday
148,31.35374289842745
596,-19.17262120906829
597,100.0
2,2, 5, 4, 0,19,10.00,20.00,Thursday
148,30.877041460008397
596,-19.96913880742561
597,100.0
2,2, 5, 4, 0,19,20.00,30.00,Thursday
148,30.60719496674505
596,-20.33910916770753
597,100.0
2,2, 5, 4, 0,19,30.00,40.00,Thursday
148,30.4053057767975
596,-20.6920208403667
597,100.0
2,2, 5, 4, 0,19,40.00,50.00,Thursday
148,30.172229212553846
596,-21.105818271735168
597,100.0
2,2, 5, 4, 0,19,50.00,60.00,Thursday
148,30.061042409815113
596,-21.43360532525166
597,100.0
2,2, 5, 4, 0,20, 0.00,10.00,Thursday
148,30.003322233109765
596,-21.628960201486529
597,100.0
2,2, 5, 4, 0,20,10.00,20.00,Thursday
148,29.900339071507799
596,-21.876489373648405
597,100.0
2,2, 5, 4, 0,20,20.00,30.00,Thursday
148,29.77238505643691
596,-22.15429808080243
597,100.0
2,2, 5, 4, 0,20,30.00,40.00,Thursday
148,29.663745695205575
596,-22.38772192284955
597,100.0
2,2, 5, 4, 0,20,40.00,50.00,Thursday
148,29.57121438345492
596,-22.592529614394196
597,100.0
2,2, 5, 4, 0,20,50.00,60.00,Thursday
148,29.507010696841168
596,-22.7283498881178
597,100.0
2,2, 5, 4, 0,21, 0.00,10.00,Thursday
148,29.448701315428406
596,-22.871540708089066
597,100.0
2,2, 5, 4, 0,21,10.00,20.00,Thursday
148,29.390707678616694
596,-22.998251237992535
597,100.0
2,2, 5, 4, 0,21,20.00,30.00,Thursday
148,29.319036497453366
596,-23.165852470699464
597,100.0
2,2, 5, 4, 0,21,30.00,40.00,Thursday
148,29.275880929321727
596,-23.26179624116724
597,100.0
2,2, 5, 4, 0,21,40.00,50.00,Thursday
148,29.227513167838869
596,-23.380653675025873
597,100.0
2,2, 5, 4, 0,21,50.00,60.00,Thursday
148,29.144067831926824
596,-23.57512127338569
597,100.0
2,2, 5, 4, 0,22, 0.00,10.00,Thursday
148,29.01408662250573
596,-23.843207129246495
597,100.0
2,2, 5, 4, 0,22,10.00,20.00,Thursday
148,28.929769472595735
596,-24.012995624753878
597,100.0
2,2, 5, 4, 0,22,20.00,30.00,Thursday
148,28.81242435455808
596,-24.307481511094907
597,100.0
2,2, 5, 4, 0,22,30.00,40.00,Thursday
148,28.778245645135564
596,-24.367672090753769
597,100.0
2,2, 5, 4, 0,22,40.00,50.00,Thursday
148,28.747878890882857
596,-24.48966749536229
597,100.0
2,2, 5, 4, 0,22,50.00,60.00,Thursday
148,28.760150253142485
596,-24.561571421118925
597,100.0
2,2, 5, 4, 0,23, 0.00,10.00,Thursday
148,28.72066224073248
596,-24.69346059268091
597,100.0
2,2, 5, 4, 0,23,10.00,20.00,Thursday
148,28.681633619811277
596,-24.861653141068744
597,100.0
2,2, 5, 4, 0,23,20.00,30.00,Thursday
148,28.60941291228206
596,-25.057856216452924
597,100.0
2,2, 5, 4, 0,23,30.00,40.00,Thursday
148,28.536506729136968
596,-25.27963022750135
597,100.0
2,2, 5, 4, 0,23,40.00,50.00,Thursday
148,28.447910861285864
596,-25.512394547750796
597,100.0
2,2, 5, 4, 0,23,50.00,60.00,Thursday
148,28.38997139834775
596,-25.643487537144194
597,100.0
2,2, 5, 4, 0,24, 0.00,10.00,Thursday
148,28.360025430467926
596,-25.733511798450754
597,100.0
2,2, 5, 4, 0,24,10.00,20.00,Thursday
148,28.256442514602815
596,-25.976657076517264
597,100.0
2,2, 5, 4, 0,24,20.00,30.00,Thursday
148,28.189677860236864
596,-26.17579364278232
597,100.0
2,2, 5, 4, 0,24,30.00,40.00,Thursday
148,28.165564182982857
596,-26.298097135940968
597,100.0
2,2, 5, 4, 0,24,40.00,50.00,Thursday
148,28.11083757236603
596,-26.51470022902503
597,100.0
2,2, 5, 4, 0,24,50.00,60.00,Thursday
148,27.993451713613259
596,-26.770275996957179
597,100.0
2,3, 5, 5, 0, 1, 0.00,10.00,Friday
148,27.884206100122066
596,-27.0509434787384
597,100.0
2,3, 5, 5, 0, 1,10.00,20.00,Friday
148,27.842999512349516
596,-27.17293353797685
597,100.0
2,3, 5, 5, 0, 1,20.00,30.00,Friday
148,27.81457603738144
596,-27.301169099800818
597,100.0
2,3, 5, 5, 0, 1,30.00,40.00,Friday
148,27.794013751835569
596,-27.38399388192867
597,100.0
2,3, 5, 5, 0, 1,40.00,50.00,Friday
148,27.688371479578675
596,-27.665445510229949
597,100.0
2,3, 5, 5, 0, 1,50.00,60.00,Friday
148,27.6556823252771
596,-27.78476078253567
597,100.0
2,3, 5, 5, 0, 2, 0.00,10.00,Friday
148,27.62071029908752
596,-27.92783543998337
597,100.0
2,3, 5, 5, 0, 2,10.00,20.00,Friday
148,27.567052220223105
596,-28.127173827872057
597,100.0
2,3, 5, 5, 0, 2,20.00,30.00,Friday
148,27.440340523551425
596,-28.442708510940098
597,100.0
2,3, 5, 5, 0, 2,30.00,40.00,Friday
148,27.059757589580184
596,-29.235585412059526
597,100.0
2,3, 5, 5, 0, 2,40.00,50.00,Friday
148,26.81245794523666
596,-29.80149372166989
597,100.0
2,3, 5, 5, 0, 2,50.00,60.00,Friday
148,26.521451387130587
596,-30.419994376649055
597,100.0