Program Version,EnergyPlus, Version 9.5.0-de239b2e5f, YMD=2021.12.09 19:02
1,5,Environment Title[],Latitude[deg],Longitude[deg],Time Zone[],Elevation[m]
2,8,Day of Simulation[],Month[],Day of Month[],DST Indicator[1=yes 0=no],Hour[],StartMinute[],EndMinute[],DayType
3,5,Cumulative Day of Simulation[],Month[],Day of Month[],DST Indicator[1=yes 0=no],DayType  ! When Daily Report Variables Requested
4,2,Cumulative Days of Simulation[],Month[]  ! When Monthly Report Variables Requested
5,1,Cumulative Days of Simulation[] ! When Run Period Report Variables Requested
6,1,Calendar Year of Simulation[] ! When Annual Report Variables Requested
148,1,THERMAL ZONE: JORGE,Zone Mean Air Temperature [C] !TimeStep
596,1,JORGE,Zone Thermal Comfort Fanger Model PMV [] !TimeStep
597,1,JORGE,Zone Thermal Comfort Fanger Model PPD [%] !TimeStep
End of Data Dictionary
1,RUN PERIOD 1,  18.85, -99.14,  -6.00,1280.00
2,1, 5, 3, 0, 1, 0.00,10.00,Wednesday
148,26.391963401313448
596,-1.0780161860292939
597,29.51723321630233
2,1, 5, 3, 0, 1,10.00,20.00,Wednesday
148,26.35747629132949
596,-1.0997689592521217
597,30.503346923822137
2,1, 5, 3, 0, 1,20.00,30.00,Wednesday
148,26.384399617265815
596,-1.0983930823841515
597,30.44049251776299
2,1, 5, 3, 0, 1,30.00,40.00,Wednesday
148,26.358497544734904
596,-1.1181355803641067
597,31.348517970924776
2,1, 5, 3, 0, 1,40.00,50.00,Wednesday
148,26.24663294633761
596,-1.1625359210883515
597,33.437330551540089
2,1, 5, 3, 0, 1,50.00,60.00,Wednesday
148,26.046316076394786
596,-1.23385016700892
597,36.91785307998145
2,1, 5, 3, 0, 2, 0.00,10.00,Wednesday
148,25.882077621694504
596,-1.2971898971874896
597,40.12395419158207
2,1, 5, 3, 0, 2,10.00,20.00,Wednesday
148,25.770402230160415
596,-1.3459704345756514
597,42.655612794158667
2,1, 5, 3, 0, 2,20.00,30.00,Wednesday
148,25.529037189486176
596,-1.4327903026631388
597,47.26678875608
2,1, 5, 3, 0, 2,30.00,40.00,Wednesday
148,25.398572914636114
596,-1.4863268991451258
597,50.1579641947892
2,1, 5, 3, 0, 2,40.00,50.00,Wednesday
148,25.360693882640626
596,-1.5104588644143362
597,51.46857780206354
2,1, 5, 3, 0, 2,50.00,60.00,Wednesday
148,25.413764826004465
596,-1.509008582561802
597,51.389721012499098
2,1, 5, 3, 0, 3, 0.00,10.00,Wednesday
148,25.43966525940933
596,-1.5153765115808904
597,51.73604017364327
2,1, 5, 3, 0, 3,10.00,20.00,Wednesday
148,25.579849532240048
596,-1.485941636280054
597,50.13707012610404
2,1, 5, 3, 0, 3,20.00,30.00,Wednesday
148,25.682762737150857
596,-1.4651106402678869
597,49.00903124550002
2,1, 5, 3, 0, 3,30.00,40.00,Wednesday
148,25.618374955095175
596,-1.4979097405293168
597,50.786601794513099
2,1, 5, 3, 0, 3,40.00,50.00,Wednesday
148,25.555913671393854
596,-1.5267617857989584
597,52.35564709957958
2,1, 5, 3, 0, 3,50.00,60.00,Wednesday
148,25.495866641074199
596,-1.5597723158081858
597,54.154008691641
2,1, 5, 3, 0, 4, 0.00,10.00,Wednesday
148,25.438406924128274
596,-1.5902009557013837
597,55.81186359612415
2,1, 5, 3, 0, 4,10.00,20.00,Wednesday
148,25.32919747943056
596,-1.6333088125886229
597,58.155280827218309
2,1, 5, 3, 0, 4,20.00,30.00,Wednesday
148,25.305501961846728
596,-1.6579855886683932
597,59.49128033568356
2,1, 5, 3, 0, 4,30.00,40.00,Wednesday
148,25.016455374232164
596,-1.761376405567514
597,65.0079266631752
2,1, 5, 3, 0, 4,40.00,50.00,Wednesday
148,24.630051442911865
596,-1.9040436902253295
597,72.25077369869608
2,1, 5, 3, 0, 4,50.00,60.00,Wednesday
148,24.46851350894071
596,-1.972147928585987
597,75.48783791755588
2,1, 5, 3, 0, 5, 0.00,10.00,Wednesday
148,24.400242489322836
596,-2.0121673217565596
597,77.30862428102617
2,1, 5, 3, 0, 5,10.00,20.00,Wednesday
148,24.583725109513336
596,-1.9710047491229957
597,75.43490163038392
2,1, 5, 3, 0, 5,20.00,30.00,Wednesday
148,24.747087629114576
596,-1.9267847760603166
597,73.34995399792557
2,1, 5, 3, 0, 5,30.00,40.00,Wednesday
148,24.85877795840743
596,-1.9030897014965079
597,72.20428375261656
2,1, 5, 3, 0, 5,40.00,50.00,Wednesday
148,24.781990713234344
596,-1.931289269880886
597,73.56556965860816
2,1, 5, 3, 0, 5,50.00,60.00,Wednesday
148,24.52629528700876
596,-2.0272344663554939
597,77.97729631371178
2,1, 5, 3, 0, 6, 0.00,10.00,Wednesday
148,24.313158339343805
596,-2.104623817617353
597,81.25654466706735
2,1, 5, 3, 0, 6,10.00,20.00,Wednesday
148,24.100322145988466
596,-2.196882120886615
597,84.8012844642219
2,1, 5, 3, 0, 6,20.00,30.00,Wednesday
148,24.05478899798379
596,-2.222816890870315
597,85.72234543342835
2,1, 5, 3, 0, 6,30.00,40.00,Wednesday
148,23.88046892785959
596,-2.3007822054763888
597,88.28561275425109
2,1, 5, 3, 0, 6,40.00,50.00,Wednesday
148,23.702719295642365
596,-2.3684058956265638
597,90.2566342159978
2,1, 5, 3, 0, 6,50.00,60.00,Wednesday
148,23.58070680197228
596,-2.422875164089008
597,91.67497653692706
2,1, 5, 3, 0, 7, 0.00,10.00,Wednesday
148,23.62828197438898
596,-2.4187505585949484
597,91.57279393267373
2,1, 5, 3, 0, 7,10.00,20.00,Wednesday
148,23.80941679482486
596,-2.367560435967783
597,90.23343564735233
2,1, 5, 3, 0, 7,20.00,30.00,Wednesday
148,23.886263124853025
596,-2.3559458820582988
597,89.91105540890563
2,1, 5, 3, 0, 7,30.00,40.00,Wednesday
148,23.54517083351042
596,-2.476570294092193
597,92.92860864756669
2,1, 5, 3, 0, 7,40.00,50.00,Wednesday
148,23.3739742852424
596,-2.539878157886853
597,94.22896224088039
2,1, 5, 3, 0, 7,50.00,60.00,Wednesday
148,23.76472863814127
596,-2.4136486286904668
597,91.4452239215709
2,1, 5, 3, 0, 8, 0.00,10.00,Wednesday
148,23.97991649198611
596,-2.340323197992922
597,89.46655418935848
2,1, 5, 3, 0, 8,10.00,20.00,Wednesday
148,23.73841598223594
596,-2.417430679119755
597,91.53991605811336
2,1, 5, 3, 0, 8,20.00,30.00,Wednesday
148,23.792010722686947
596,-2.3921252637319596
597,90.89267126837676
2,1, 5, 3, 0, 8,30.00,40.00,Wednesday
148,23.936629670033619
596,-2.3349574196967568
597,89.31100274385013
2,1, 5, 3, 0, 8,40.00,50.00,Wednesday
148,24.15938499786398
596,-2.247121961359153
597,86.55470067744229
2,1, 5, 3, 0, 8,50.00,60.00,Wednesday
148,24.416581724612404
596,-2.1463051440346718
597,82.9089835338405
2,1, 5, 3, 0, 9, 0.00,10.00,Wednesday
148,24.92691901005687
596,-1.958087978683603
597,74.83332685945601
2,1, 5, 3, 0, 9,10.00,20.00,Wednesday
148,25.195526949831149
596,-1.8639739488423864
597,70.27317795271685
2,1, 5, 3, 0, 9,20.00,30.00,Wednesday
148,25.281130317562928
596,-1.8243753751275834
597,68.2723366792753
2,1, 5, 3, 0, 9,30.00,40.00,Wednesday
148,25.32205447196678
596,-1.79499231640637
597,66.76113710489867
2,1, 5, 3, 0, 9,40.00,50.00,Wednesday
148,25.400569825517367
596,-1.7481156072529858
597,64.3099446792463
2,1, 5, 3, 0, 9,50.00,60.00,Wednesday
148,25.503072109863134
596,-1.69660077765474
597,61.569594564263187
2,1, 5, 3, 0,10, 0.00,10.00,Wednesday
148,27.52425741785165
596,0.037631597341256737
597,5.029316610039089
2,1, 5, 3, 0,10,10.00,20.00,Wednesday
148,27.84730455631492
596,0.15121167011245768
597,5.4737961855413179
2,1, 5, 3, 0,10,20.00,30.00,Wednesday
148,28.139037745507829
596,0.2239379072628809
597,6.0403646197120939
2,1, 5, 3, 0,10,30.00,40.00,Wednesday
148,28.632756032123678
596,0.3529940287877214
597,7.592798816575879
2,1, 5, 3, 0,10,40.00,50.00,Wednesday
148,28.782575884783076
596,0.4120761863903641
597,8.539317730898987
2,1, 5, 3, 0,10,50.00,60.00,Wednesday
148,28.74921527436253
596,0.42141319743188268
597,8.702558407085164
2,1, 5, 3, 0,11, 0.00,10.00,Wednesday
148,28.67667579705421
596,0.4137044050835104
597,8.567515202273654
2,1, 5, 3, 0,11,10.00,20.00,Wednesday
148,28.892784323523835
596,0.48017882816115217
597,9.815934792793897
2,1, 5, 3, 0,11,20.00,30.00,Wednesday
148,29.135760884628057
596,0.5552306475868862
597,11.454561640835309
2,1, 5, 3, 0,11,30.00,40.00,Wednesday
148,29.266897333091067
596,0.6042286225930148
597,12.656029871487107
2,1, 5, 3, 0,11,40.00,50.00,Wednesday
148,29.34048162598545
596,0.6376517574122764
597,13.535362911768104
2,1, 5, 3, 0,11,50.00,60.00,Wednesday
148,29.443323676934008
596,0.6772438275449391
597,14.639675919352755
2,1, 5, 3, 0,12, 0.00,10.00,Wednesday
148,29.602472175345608
596,0.7357775041592011
597,16.396472102598965
2,1, 5, 3, 0,12,10.00,20.00,Wednesday
148,29.700026075202506
596,0.7659037426082307
597,17.358093392554936
2,1, 5, 3, 0,12,20.00,30.00,Wednesday
148,29.928965832714526
596,0.843958221187065
597,20.02902684562811
2,1, 5, 3, 0,12,30.00,40.00,Wednesday
148,30.04657140569325
596,0.884891638244125
597,21.531651727676946
2,1, 5, 3, 0,12,40.00,50.00,Wednesday
148,30.238347708490559
596,0.9483487233672594
597,23.99613565810857
2,1, 5, 3, 0,12,50.00,60.00,Wednesday
148,30.417358299701158
596,1.0077369112100108
597,26.44655220128908
2,1, 5, 3, 0,13, 0.00,10.00,Wednesday
148,30.638452177382143
596,1.0823867535505834
597,29.714047993018299
2,1, 5, 3, 0,13,10.00,20.00,Wednesday
148,30.758551788714564
596,1.1211716119878555
597,31.489312364740117
2,1, 5, 3, 0,13,20.00,30.00,Wednesday
148,30.838369073810385
596,1.1582300835728508
597,33.23201803260673
2,1, 5, 3, 0,13,30.00,40.00,Wednesday
148,30.92961864904441
596,1.1846390620376624
597,34.500199944595809
2,1, 5, 3, 0,13,40.00,50.00,Wednesday
148,31.050125741703345
596,1.2093607774291924
597,35.70616721957103
2,1, 5, 3, 0,13,50.00,60.00,Wednesday
148,31.118472395824886
596,1.2305764714785948
597,36.75492660934088
2,1, 5, 3, 0,14, 0.00,10.00,Wednesday
148,31.12812304936447
596,1.2629174401777917
597,38.37682125693252
2,1, 5, 3, 0,14,10.00,20.00,Wednesday
148,31.279721834637109
596,1.3325839318688236
597,41.956012392628839
2,1, 5, 3, 0,14,20.00,30.00,Wednesday
148,31.429509240798294
596,1.3829201402351664
597,44.6036911198322
2,1, 5, 3, 0,14,30.00,40.00,Wednesday
148,31.517650777246798
596,1.4184977467861802
597,46.50009443668251
2,1, 5, 3, 0,14,40.00,50.00,Wednesday
148,31.759592093508404
596,1.4916008652847182
597,50.44409106115448
2,1, 5, 3, 0,14,50.00,60.00,Wednesday
148,32.113629355109939
596,1.579372699124467
597,55.222067511969367
2,1, 5, 3, 0,15, 0.00,10.00,Wednesday
148,31.846713399314916
596,1.4996404611284929
597,50.88060546325246
2,1, 5, 3, 0,15,10.00,20.00,Wednesday
148,31.843997531752373
596,1.5212696628048626
597,52.056694950490498
2,1, 5, 3, 0,15,20.00,30.00,Wednesday
148,32.065452294092469
596,1.5999331080079116
597,56.34167131067799
2,1, 5, 3, 0,15,30.00,40.00,Wednesday
148,32.191347404255569
596,1.6516349362986223
597,59.14795552957851
2,1, 5, 3, 0,15,40.00,50.00,Wednesday
148,32.286465075435447
596,1.674365507170466
597,60.374949640727489
2,1, 5, 3, 0,15,50.00,60.00,Wednesday
148,32.40280176328256
596,1.717658941221085
597,62.69487832873824
2,1, 5, 3, 0,16, 0.00,10.00,Wednesday
148,32.508242877141018
596,1.7648226791481623
597,65.18875880032812
2,1, 5, 3, 0,16,10.00,20.00,Wednesday
148,32.617116308628059
596,1.792196273403836
597,66.61625686471737
2,1, 5, 3, 0,16,20.00,30.00,Wednesday
148,32.636126438048297
596,1.7920616381488628
597,66.60927606013442
2,1, 5, 3, 0,16,30.00,40.00,Wednesday
148,32.65241815921001
596,1.8053029346499919
597,67.2938169237438
2,1, 5, 3, 0,16,40.00,50.00,Wednesday
148,32.77744641124438
596,1.8211362798225717
597,68.10679904788094
2,1, 5, 3, 0,16,50.00,60.00,Wednesday
148,32.605619747310857
596,1.7620410525923199
597,65.04282035956216
2,1, 5, 3, 0,17, 0.00,10.00,Wednesday
148,32.4207120845918
596,1.7204133801617272
597,62.84157686397383
2,1, 5, 3, 0,17,10.00,20.00,Wednesday
148,32.234654211655797
596,1.6593800026005486
597,59.566613224490428
2,1, 5, 3, 0,17,20.00,30.00,Wednesday
148,31.920776531251975
596,1.5586089589799249
597,54.09060909842529
2,1, 5, 3, 0,17,30.00,40.00,Wednesday
148,31.722096812837405
596,1.492660512853553
597,50.501602127449249
2,1, 5, 3, 0,17,40.00,50.00,Wednesday
148,31.664390457345715
596,1.4663236400684899
597,49.07461910431886
2,1, 5, 3, 0,17,50.00,60.00,Wednesday
148,31.69645090388407
596,1.482906500336153
597,49.972501742113838
2,1, 5, 3, 0,18, 0.00,10.00,Wednesday
148,31.593770483163945
596,1.4579981960884108
597,48.62472557910463
2,1, 5, 3, 0,18,10.00,20.00,Wednesday
148,31.507715800837575
596,1.4407872393082846
597,47.69683487302441
2,1, 5, 3, 0,18,20.00,30.00,Wednesday
148,31.52088268904645
596,1.4526087899163012
597,48.33384136696137
2,1, 5, 3, 0,18,30.00,40.00,Wednesday
148,31.551896261797876
596,1.467989589807039
597,49.16471946177942
2,1, 5, 3, 0,18,40.00,50.00,Wednesday
148,31.632514430373747
596,1.4961102117442054
597,50.68887970933197
2,1, 5, 3, 0,18,50.00,60.00,Wednesday
148,31.780094727598727
596,1.5370077353839629
597,52.913612797633927
2,1, 5, 3, 0,19, 0.00,10.00,Wednesday
148,30.267461279943423
596,0.5484481543528088
597,11.296454874959025
2,1, 5, 3, 0,19,10.00,20.00,Wednesday
148,29.892707703612055
596,0.42424023118116296
597,8.752721164866458
2,1, 5, 3, 0,19,20.00,30.00,Wednesday
148,29.698619002573549
596,0.35395374348284228
597,7.606984351523238
2,1, 5, 3, 0,19,30.00,40.00,Wednesday
148,29.23706938492083
596,0.23465957835029964
597,6.142607064290388
2,1, 5, 3, 0,19,40.00,50.00,Wednesday
148,28.973666403534116
596,0.15421525214814567
597,5.492825308430312
2,1, 5, 3, 0,19,50.00,60.00,Wednesday
148,28.89949618965035
596,0.10626965680320866
597,5.233893563739954
2,1, 5, 3, 0,20, 0.00,10.00,Wednesday
148,28.883544978098774
596,0.08521360196736765
597,5.150362575481921
2,1, 5, 3, 0,20,10.00,20.00,Wednesday
148,28.819873819361573
596,0.054363573063158737
597,5.061186327426896
2,1, 5, 3, 0,20,20.00,30.00,Wednesday
148,28.654731619195134
596,-0.0008724365299762144
597,5.000015756092935
2,1, 5, 3, 0,20,30.00,40.00,Wednesday
148,28.493070242060325
596,-0.05077583289883151
597,5.053375895730824
2,1, 5, 3, 0,20,40.00,50.00,Wednesday
148,28.230551511070229
596,-0.1268311129226295
597,5.333229410694628
2,1, 5, 3, 0,20,50.00,60.00,Wednesday
148,28.095920142129285
596,-0.18155240441075408
597,5.683306338530599
2,1, 5, 3, 0,21, 0.00,10.00,Wednesday
148,27.93805781323205
596,-0.24072261527945075
597,6.20255960847193
2,1, 5, 3, 0,21,10.00,20.00,Wednesday
148,27.793347498684996
596,-0.2959131926244434
597,6.819407216649097
2,1, 5, 3, 0,21,20.00,30.00,Wednesday
148,27.550866737098088
596,-0.37978788165081497
597,8.00358001303917
2,1, 5, 3, 0,21,30.00,40.00,Wednesday
148,27.15011937640999
596,-0.49526130612178306
597,10.125679371593037
2,1, 5, 3, 0,21,40.00,50.00,Wednesday
148,27.248601991890668
596,-0.49066356031747407
597,10.030216216257003
2,1, 5, 3, 0,21,50.00,60.00,Wednesday
148,27.14757619997572
596,-0.5348579007237607
597,10.985651936489333
2,1, 5, 3, 0,22, 0.00,10.00,Wednesday
148,27.1562814639407
596,-0.5447213318923891
597,11.210427724022509
2,1, 5, 3, 0,22,10.00,20.00,Wednesday
148,27.10139300281946
596,-0.5691214022140161
597,11.78459501065322
2,1, 5, 3, 0,22,20.00,30.00,Wednesday
148,26.87494225307205
596,-0.6636160160403766
597,14.251900193932116
2,1, 5, 3, 0,22,30.00,40.00,Wednesday
148,26.773048250281886
596,-0.7151735210320521
597,15.761228868963585
2,1, 5, 3, 0,22,40.00,50.00,Wednesday
148,26.848831865120677
596,-0.7070082519515983
597,15.514542149251512
2,1, 5, 3, 0,22,50.00,60.00,Wednesday
148,26.832593758199275
596,-0.7262046072885482
597,16.09905796555887
2,1, 5, 3, 0,23, 0.00,10.00,Wednesday
148,27.0029609632449
596,-0.6971732829672093
597,15.221229110897355
2,1, 5, 3, 0,23,10.00,20.00,Wednesday
148,26.953728160905624
596,-0.7158109628470414
597,15.78060799711578
2,1, 5, 3, 0,23,20.00,30.00,Wednesday
148,26.88189291384744
596,-0.7526115464088737
597,16.929019407267064
2,1, 5, 3, 0,23,30.00,40.00,Wednesday
148,27.006464883669083
596,-0.7415439235451938
597,16.577525026954107
2,1, 5, 3, 0,23,40.00,50.00,Wednesday
148,27.046585386539286
596,-0.7422180322976517
597,16.598783725074399
2,1, 5, 3, 0,23,50.00,60.00,Wednesday
148,26.980189453929403
596,-0.7698074616826292
597,17.48553981691795
2,1, 5, 3, 0,24, 0.00,10.00,Wednesday
148,26.990443554254079
596,-0.7800429665023043
597,17.822787563274887
2,1, 5, 3, 0,24,10.00,20.00,Wednesday
148,27.013172756606214
596,-0.7892755682768229
597,18.13081470851452
2,1, 5, 3, 0,24,20.00,30.00,Wednesday
148,26.916564800663733
596,-0.8294873755277465
597,19.51446743893426
2,1, 5, 3, 0,24,30.00,40.00,Wednesday
148,26.853229816471069
596,-0.8595668005103605
597,20.593826869221574
2,1, 5, 3, 0,24,40.00,50.00,Wednesday
148,26.72171966692634
596,-0.9115495391260725
597,22.547203753081705
2,1, 5, 3, 0,24,50.00,60.00,Wednesday
148,26.661038138793914
596,-0.9420661947757131
597,23.74494883529775
2,2, 5, 4, 0, 1, 0.00,10.00,Thursday
148,26.834680822405937
596,-0.9082135337760581
597,22.418536966483317
2,2, 5, 4, 0, 1,10.00,20.00,Thursday
148,26.926468325862858
596,-0.8969585062837985
597,21.987766751782986
2,2, 5, 4, 0, 1,20.00,30.00,Thursday
148,26.803265444765804
596,-0.9411513130423677
597,23.70850053261921
2,2, 5, 4, 0, 1,30.00,40.00,Thursday
148,26.567262470186525
596,-1.021642142665865
597,27.039737393688229
2,2, 5, 4, 0, 1,40.00,50.00,Thursday
148,26.511252922102846
596,-1.0466715390887676
597,28.12552459226309
2,2, 5, 4, 0, 1,50.00,60.00,Thursday
148,26.567471627944604
596,-1.041190247854279
597,27.885780092776359
2,2, 5, 4, 0, 2, 0.00,10.00,Thursday
148,26.663538036210544
596,-1.0241269673975644
597,27.146497885927034
2,2, 5, 4, 0, 2,10.00,20.00,Thursday
148,26.640419982744647
596,-1.040838519341414
597,27.87043329890338
2,2, 5, 4, 0, 2,20.00,30.00,Thursday
148,26.6210188018864
596,-1.0541014315752775
597,28.452236639061554
2,2, 5, 4, 0, 2,30.00,40.00,Thursday
148,26.54713523071507
596,-1.08608303821389
597,29.88101772082524
2,2, 5, 4, 0, 2,40.00,50.00,Thursday
148,26.454745339357375
596,-1.1223736007590513
597,31.545138223627647
2,2, 5, 4, 0, 2,50.00,60.00,Thursday
148,26.391630156566217
596,-1.1528359706529668
597,32.975630164686609
2,2, 5, 4, 0, 3, 0.00,10.00,Thursday
148,26.40302025730754
596,-1.1636717002044355
597,33.491583005640439
2,2, 5, 4, 0, 3,10.00,20.00,Thursday
148,26.285878128282275
596,-1.2131253605064639
597,35.89134948169162
2,2, 5, 4, 0, 3,20.00,30.00,Thursday
148,26.26293554225216
596,-1.23482798514118
597,36.96657329119038
2,2, 5, 4, 0, 3,30.00,40.00,Thursday
148,26.089940038245559
596,-1.2979445846674243
597,40.162734831983907
2,2, 5, 4, 0, 3,40.00,50.00,Thursday
148,25.943688158793436
596,-1.35131859752938
597,42.93607493944984
2,2, 5, 4, 0, 3,50.00,60.00,Thursday
148,25.960196289457099
596,-1.3647473007140807
597,43.64259457360314
2,2, 5, 4, 0, 4, 0.00,10.00,Thursday
148,25.902848834327135
596,-1.397762904815556
597,45.39261194713839
2,2, 5, 4, 0, 4,10.00,20.00,Thursday
148,25.796246309356854
596,-1.4423077422517945
597,47.77868362986651
2,2, 5, 4, 0, 4,20.00,30.00,Thursday
148,25.700374702241068
596,-1.4847784166689562
597,50.073991278584788
2,2, 5, 4, 0, 4,30.00,40.00,Thursday
148,25.577830448588619
596,-1.5346918584344325
597,52.78747217057827
2,2, 5, 4, 0, 4,40.00,50.00,Thursday
148,25.4907252273946
596,-1.5709297751362704
597,54.76204118866622
2,2, 5, 4, 0, 4,50.00,60.00,Thursday
148,25.469172543094517
596,-1.5844267542296927
597,55.49738724138591
2,2, 5, 4, 0, 5, 0.00,10.00,Thursday
148,25.396365562016656
596,-1.6235513063269236
597,57.62572526133798
2,2, 5, 4, 0, 5,10.00,20.00,Thursday
148,25.29261402867604
596,-1.6682155156743693
597,60.043497988807299
2,2, 5, 4, 0, 5,20.00,30.00,Thursday
148,25.137912236223277
596,-1.7206586241901279
597,62.85463251296048
2,2, 5, 4, 0, 5,30.00,40.00,Thursday
148,25.071887654713295
596,-1.7517102324396477
597,64.49947973655792
2,2, 5, 4, 0, 5,40.00,50.00,Thursday
148,25.06232486409325
596,-1.7727623075253403
597,65.6044460537054
2,2, 5, 4, 0, 5,50.00,60.00,Thursday
148,24.9999515406369
596,-1.80711663332355
597,67.38725665322787
2,2, 5, 4, 0, 6, 0.00,10.00,Thursday
148,25.01967067962094
596,-1.8088521891695282
597,67.47659586711545
2,2, 5, 4, 0, 6,10.00,20.00,Thursday
148,24.704252958296644
596,-1.9243093320029943
597,73.23116101865654
2,2, 5, 4, 0, 6,20.00,30.00,Thursday
148,24.481212025658935
596,-2.007191689575334
597,77.08574446002776
2,2, 5, 4, 0, 6,30.00,40.00,Thursday
148,24.25198052573124
596,-2.098331017535469
597,80.99997187115773
2,2, 5, 4, 0, 6,40.00,50.00,Thursday
148,24.078513756503438
596,-2.1673260237252709
597,83.71072113372301
2,2, 5, 4, 0, 6,50.00,60.00,Thursday
148,24.124350154309519
596,-2.158374134574189
597,83.37192545946599
2,2, 5, 4, 0, 7, 0.00,10.00,Thursday
148,24.357489031853214
596,-2.094627412949964
597,80.8481112598429
2,2, 5, 4, 0, 7,10.00,20.00,Thursday
148,24.591726747984258
596,-2.027395400692789
597,77.98438723639201
2,2, 5, 4, 0, 7,20.00,30.00,Thursday
148,24.393592435965524
596,-2.0948452937973536
597,80.85706262016763
2,2, 5, 4, 0, 7,30.00,40.00,Thursday
148,24.509280148978627
596,-2.071998915488686
597,79.90665709252879
2,2, 5, 4, 0, 7,40.00,50.00,Thursday
148,24.639912402459016
596,-2.0311015840381336
597,78.14738257539509
2,2, 5, 4, 0, 7,50.00,60.00,Thursday
148,24.72440342971531
596,-2.0061372209167778
597,77.03838019946825
2,2, 5, 4, 0, 8, 0.00,10.00,Thursday
148,24.740222378735166
596,-2.0019232658326184
597,76.8486475205866
2,2, 5, 4, 0, 8,10.00,20.00,Thursday
148,24.67026692426887
596,-2.019791815535732
597,77.64817758721812
2,2, 5, 4, 0, 8,20.00,30.00,Thursday
148,24.580789756047236
596,-2.0435184248581215
597,78.68920433262976
2,2, 5, 4, 0, 8,30.00,40.00,Thursday
148,24.62530103710587
596,-2.018576095707565
597,77.59419765325967
2,2, 5, 4, 0, 8,40.00,50.00,Thursday
148,24.76259769373104
596,-1.9590120722558647
597,74.87657342017357
2,2, 5, 4, 0, 8,50.00,60.00,Thursday
148,25.01944852285721
596,-1.867076245143058
597,70.42805120045857
2,2, 5, 4, 0, 9, 0.00,10.00,Thursday
148,25.141163777291447
596,-1.817303751645308
597,67.91058713743965
2,2, 5, 4, 0, 9,10.00,20.00,Thursday
148,25.2787784438177
596,-1.7765902155742548
597,65.80439090852777
2,2, 5, 4, 0, 9,20.00,30.00,Thursday
148,25.476473933408128
596,-1.6916056300030445
597,61.3017585736528
2,2, 5, 4, 0, 9,30.00,40.00,Thursday
148,25.669200251747495
596,-1.6142703537118666
597,57.121485430788109
2,2, 5, 4, 0, 9,40.00,50.00,Thursday
148,25.81505503909776
596,-1.546987991819306
597,53.45733898579702
2,2, 5, 4, 0, 9,50.00,60.00,Thursday
148,25.886346394209505
596,-1.5238461715257564
597,52.1969286146461
2,2, 5, 4, 0,10, 0.00,10.00,Thursday
148,27.708807487094434
596,0.08556898789336066
597,5.151619784073404
2,2, 5, 4, 0,10,10.00,20.00,Thursday
148,27.903581189120677
596,0.1603574200291714
597,5.532909010656098
2,2, 5, 4, 0,10,20.00,30.00,Thursday
148,28.20336032078648
596,0.23849925810068588
597,6.1803953996330709
2,2, 5, 4, 0,10,30.00,40.00,Thursday
148,28.61519808220608
596,0.3401065990659198
597,7.406104285397859
2,2, 5, 4, 0,10,40.00,50.00,Thursday
148,28.752324040725737
596,0.39248318025761566
597,8.208906739851728
2,2, 5, 4, 0,10,50.00,60.00,Thursday
148,28.834759631298426
596,0.4327816622173408
597,8.906363180978403
2,2, 5, 4, 0,11, 0.00,10.00,Thursday
148,28.942070763975776
596,0.47521488098148759
597,9.716138621991505
2,2, 5, 4, 0,11,10.00,20.00,Thursday
148,29.04801337901803
596,0.5148977086389209
597,10.543672189871274
2,2, 5, 4, 0,11,20.00,30.00,Thursday
148,29.142930991760474
596,0.5502078167533497
597,11.337282811635277
2,2, 5, 4, 0,11,30.00,40.00,Thursday
148,29.290974409808805
596,0.6041783963500896
597,12.654744943711862
2,2, 5, 4, 0,11,40.00,50.00,Thursday
148,29.4123525028455
596,0.6395350689002506
597,13.586353630357309
2,2, 5, 4, 0,11,50.00,60.00,Thursday
148,29.558336894840399
596,0.6963655570373531
597,15.197325457476865
2,2, 5, 4, 0,12, 0.00,10.00,Thursday
148,29.733866153175947
596,0.762019995824444
597,17.231944573494617
2,2, 5, 4, 0,12,10.00,20.00,Thursday
148,29.92806722576138
596,0.8193224664929268
597,19.15826529455407
2,2, 5, 4, 0,12,20.00,30.00,Thursday
148,30.090510472458523
596,0.8808715148248669
597,21.38101755266662
2,2, 5, 4, 0,12,30.00,40.00,Thursday
148,30.233953069656864
596,0.9238661749507735
597,23.026130786102784
2,2, 5, 4, 0,12,40.00,50.00,Thursday
148,30.338802769997089
596,0.9611735826881452
597,24.51372451553783
2,2, 5, 4, 0,12,50.00,60.00,Thursday
148,30.392175917058908
596,0.9821443767352859
597,25.373899695051465
2,2, 5, 4, 0,13, 0.00,10.00,Thursday
148,30.540967386318984
596,1.03576345137511
597,27.64949868988407
2,2, 5, 4, 0,13,10.00,20.00,Thursday
148,30.766509254869584
596,1.1194509612098274
597,31.409480589772927
2,2, 5, 4, 0,13,20.00,30.00,Thursday
148,30.914234023786287
596,1.1650499428384798
597,33.55747065709657
2,2, 5, 4, 0,13,30.00,40.00,Thursday
148,31.029194401341657
596,1.20440171279944
597,35.46284030427155
2,2, 5, 4, 0,13,40.00,50.00,Thursday
148,31.135001106369196
596,1.238650193222035
597,37.15726117400108
2,2, 5, 4, 0,13,50.00,60.00,Thursday
148,31.2889718077354
596,1.2893398906587333
597,39.72133812113011
2,2, 5, 4, 0,14, 0.00,10.00,Thursday
148,31.391623926114165
596,1.3324720410413258
597,41.95017960691209
2,2, 5, 4, 0,14,10.00,20.00,Thursday
148,31.485116951329404
596,1.35737255971396
597,43.254188042898167
2,2, 5, 4, 0,14,20.00,30.00,Thursday
148,31.53138654392893
596,1.3710554776045024
597,43.97558273242278
2,2, 5, 4, 0,14,30.00,40.00,Thursday
148,31.55740329175166
596,1.384245881309381
597,44.674017411402207
2,2, 5, 4, 0,14,40.00,50.00,Thursday
148,31.620144299044399
596,1.3939776723694959
597,45.191099868906608
2,2, 5, 4, 0,14,50.00,60.00,Thursday
148,31.765867327871793
596,1.465451085734842
597,49.027438080761509
2,2, 5, 4, 0,15, 0.00,10.00,Thursday
148,31.975925520218668
596,1.523692728191186
597,52.18857636431318
2,2, 5, 4, 0,15,10.00,20.00,Thursday
148,31.95485609872363
596,1.5237043082592439
597,52.18920668939945
2,2, 5, 4, 0,15,20.00,30.00,Thursday
148,31.988338734846815
596,1.5248247366063384
597,52.25019594660458
2,2, 5, 4, 0,15,30.00,40.00,Thursday
148,32.0037804022296
596,1.5206129974100629
597,52.020958032731048
2,2, 5, 4, 0,15,40.00,50.00,Thursday
148,32.02710524929614
596,1.5393666213291209
597,53.04210850819092
2,2, 5, 4, 0,15,50.00,60.00,Thursday
148,32.11412224954274
596,1.5723812402460394
597,54.84113333582728
2,2, 5, 4, 0,16, 0.00,10.00,Thursday
148,32.32978093909519
596,1.641223354068701
597,58.584319858113577
2,2, 5, 4, 0,16,10.00,20.00,Thursday
148,32.523831680073147
596,1.7075208783615852
597,62.153935147385059
2,2, 5, 4, 0,16,20.00,30.00,Thursday
148,32.645071933093827
596,1.7434476272788895
597,64.06345722870603
2,2, 5, 4, 0,16,30.00,40.00,Thursday
148,32.70892811606478
596,1.764805777112144
597,65.18787250221212
2,2, 5, 4, 0,16,40.00,50.00,Thursday
148,32.720794497996
596,1.755958945037928
597,64.72318762359108
2,2, 5, 4, 0,16,50.00,60.00,Thursday
148,32.66071676017423
596,1.733042758119225
597,63.512635116859708
2,2, 5, 4, 0,17, 0.00,10.00,Thursday
148,32.67427400075559
596,1.758437666754936
597,64.8535393382578
2,2, 5, 4, 0,17,10.00,20.00,Thursday
148,32.8140956655989
596,1.7960995508690497
597,66.81845995384052
2,2, 5, 4, 0,17,20.00,30.00,Thursday
148,32.74937537550227
596,1.7770362382827277
597,65.82766798560346
2,2, 5, 4, 0,17,30.00,40.00,Thursday
148,32.80306239658984
596,1.7991684048738824
597,66.97718909030567
2,2, 5, 4, 0,17,40.00,50.00,Thursday
148,32.74164680901242
596,1.7797992201881124
597,65.97176766381907
2,2, 5, 4, 0,17,50.00,60.00,Thursday
148,32.71779176180272
596,1.7570846339525262
597,64.78240047699734
2,2, 5, 4, 0,18, 0.00,10.00,Thursday
148,32.647609616385938
596,1.7382426242455805
597,63.788148230233357
2,2, 5, 4, 0,18,10.00,20.00,Thursday
148,32.65686404197135
596,1.7445029783759146
597,64.11921872410614
2,2, 5, 4, 0,18,20.00,30.00,Thursday
148,32.70346494689143
596,1.7658910153860719
597,65.24476780529456
2,2, 5, 4, 0,18,30.00,40.00,Thursday
148,32.78305608967792
596,1.791882842249306
597,66.60000489770774
2,2, 5, 4, 0,18,40.00,50.00,Thursday
148,32.84981966991413
596,1.8109904977995449
597,67.58656595053324
2,2, 5, 4, 0,18,50.00,60.00,Thursday
148,32.79396968856532
596,1.7881412835365707
597,66.40582622228564
2,2, 5, 4, 0,19, 0.00,10.00,Thursday
148,31.359680654855468
596,0.9046218844079541
597,22.28051348177314
2,2, 5, 4, 0,19,10.00,20.00,Thursday
148,30.88310526712618
596,0.7638590915973473
597,17.291600342436938
2,2, 5, 4, 0,19,20.00,30.00,Thursday
148,30.612889691458276
596,0.6965243583736783
597,15.202022762129502
2,2, 5, 4, 0,19,30.00,40.00,Thursday
148,30.411233206169127
596,0.6343368971303506
597,13.445986666135426
2,2, 5, 4, 0,19,40.00,50.00,Thursday
148,30.17795844861554
596,0.5602477321243301
597,11.5727982575509
2,2, 5, 4, 0,19,50.00,60.00,Thursday
148,30.066449890251556
596,0.5013903085608275
597,10.254356010721495
2,2, 5, 4, 0,20, 0.00,10.00,Thursday
148,30.008442359879355
596,0.4660070571085099
597,9.533835748009637
2,2, 5, 4, 0,20,10.00,20.00,Thursday
148,29.90538587608549
596,0.4219492829526467
597,8.712044345761314
2,2, 5, 4, 0,20,20.00,30.00,Thursday
148,29.777383290600715
596,0.37311600528280527
597,7.898431033720655
2,2, 5, 4, 0,20,30.00,40.00,Thursday
148,29.668510072238609
596,0.3325368873719986
597,7.29973504026502
2,2, 5, 4, 0,20,40.00,50.00,Thursday
148,29.575691258413156
596,0.29729355774543617
597,6.8364815959554339
2,2, 5, 4, 0,20,50.00,60.00,Thursday
148,29.511436339313705
596,0.2740398325524737
597,6.559583556085499
2,2, 5, 4, 0,21, 0.00,10.00,Thursday
148,29.45306139282915
596,0.24943209593888145
597,6.291382508555969
2,2, 5, 4, 0,21,10.00,20.00,Thursday
148,29.394871844519647
596,0.22762408583223704
597,6.0749723635990169
2,2, 5, 4, 0,21,20.00,30.00,Thursday
148,29.322944053244087
596,0.19857206328161473
597,5.817652134971141
2,2, 5, 4, 0,21,30.00,40.00,Thursday
148,29.27967914335051
596,0.18195492220512708
597,5.686343934702421
2,2, 5, 4, 0,21,40.00,50.00,Thursday
148,29.231150532486699
596,0.16123422254963144
597,5.53875924077694
2,2, 5, 4, 0,21,50.00,60.00,Thursday
148,29.14750061288488
596,0.12755067593506784
597,5.3370239392282319
2,2, 5, 4, 0,22, 0.00,10.00,Thursday
148,29.017357102047769
596,0.0802064671399889
597,5.133206265801391
2,2, 5, 4, 0,22,10.00,20.00,Thursday
148,28.933064079422615
596,0.05037866571682453
597,5.052544057282574
2,2, 5, 4, 0,22,20.00,30.00,Thursday
148,28.815739210335516
596,0.0028511463823788706
597,5.000168275164839
2,2, 5, 4, 0,22,30.00,40.00,Thursday
148,28.781537295499395
596,-0.005639670271299863
597,5.000658398575666
2,2, 5, 4, 0,22,40.00,50.00,Thursday
148,28.75100876984801
596,-0.025949778533591314
597,5.013939952084002