Program Version,EnergyPlus, Version 9.5.0-de239b2e5f, YMD=2021.12.09 14:17
1,5,Environment Title[],Latitude[deg],Longitude[deg],Time Zone[],Elevation[m]
2,8,Day of Simulation[],Month[],Day of Month[],DST Indicator[1=yes 0=no],Hour[],StartMinute[],EndMinute[],DayType
3,5,Cumulative Day of Simulation[],Month[],Day of Month[],DST Indicator[1=yes 0=no],DayType  ! When Daily Report Variables Requested
4,2,Cumulative Days of Simulation[],Month[]  ! When Monthly Report Variables Requested
5,1,Cumulative Days of Simulation[] ! When Run Period Report Variables Requested
6,1,Calendar Year of Simulation[] ! When Annual Report Variables Requested
148,1,THERMAL ZONE: JORGE,Zone Mean Air Temperature [C] !TimeStep
596,1,JORGE,Zone Thermal Comfort Fanger Model PMV [] !TimeStep
597,1,JORGE,Zone Thermal Comfort Fanger Model PPD [%] !TimeStep
End of Data Dictionary
1,RUN PERIOD 1,  18.85, -99.14,  -6.00,1280.00
2,1, 5, 3, 0, 1, 0.00,10.00,Wednesday
148,25.50426682161255
596,-32.89402901524146
597,100.0
2,1, 5, 3, 0, 1,10.00,20.00,Wednesday
148,25.538169701773506
596,-32.93292091282016
597,100.0
2,1, 5, 3, 0, 1,20.00,30.00,Wednesday
148,25.703557441037395
596,-32.66941069320416
597,100.0
2,1, 5, 3, 0, 1,30.00,40.00,Wednesday
148,25.668068534328165
596,-32.80071610171739
597,100.0
2,1, 5, 3, 0, 1,40.00,50.00,Wednesday
148,25.454483136275817
596,-33.258309267533999
597,100.0
2,1, 5, 3, 0, 1,50.00,60.00,Wednesday
148,25.178846911006589
596,-33.837239589286827
597,100.0
2,1, 5, 3, 0, 2, 0.00,10.00,Wednesday
148,24.95427741801158
596,-34.35683595768615
597,100.0
2,1, 5, 3, 0, 2,10.00,20.00,Wednesday
148,24.743221677568465
596,-34.82968254626786
597,100.0
2,1, 5, 3, 0, 2,20.00,30.00,Wednesday
148,24.413745509385799
596,-35.53701931387163
597,100.0
2,1, 5, 3, 0, 2,30.00,40.00,Wednesday
148,24.25195582996298
596,-35.93307554093759
597,100.0
2,1, 5, 3, 0, 2,40.00,50.00,Wednesday
148,24.276949620106753
596,-35.97222073112733
597,100.0
2,1, 5, 3, 0, 2,50.00,60.00,Wednesday
148,24.390933703688846
596,-35.84686490650095
597,100.0
2,1, 5, 3, 0, 3, 0.00,10.00,Wednesday
148,24.452339667795074
596,-35.81105524524067
597,100.0
2,1, 5, 3, 0, 3,10.00,20.00,Wednesday
148,24.74706084333538
596,-35.355603220013829
597,100.0
2,1, 5, 3, 0, 3,20.00,30.00,Wednesday
148,25.000312324389303
596,-34.94616028871806
597,100.0
2,1, 5, 3, 0, 3,30.00,40.00,Wednesday
148,24.877253533634915
596,-35.23599690191286
597,100.0
2,1, 5, 3, 0, 3,40.00,50.00,Wednesday
148,24.79790235628067
596,-35.44034874649966
597,100.0
2,1, 5, 3, 0, 3,50.00,60.00,Wednesday
148,24.746490074433856
596,-35.62005439514868
597,100.0
2,1, 5, 3, 0, 4, 0.00,10.00,Wednesday
148,24.655308176250459
596,-35.858182268968779
597,100.0
2,1, 5, 3, 0, 4,10.00,20.00,Wednesday
148,24.459715679060844
596,-36.27194286074782
597,100.0
2,1, 5, 3, 0, 4,20.00,30.00,Wednesday
148,24.452597234448036
596,-36.397784374130058
597,100.0
2,1, 5, 3, 0, 4,30.00,40.00,Wednesday
148,23.958205608929477
596,-37.394664093102168
597,100.0
2,1, 5, 3, 0, 4,40.00,50.00,Wednesday
148,23.398917846950338
596,-38.60513849527094
597,100.0
2,1, 5, 3, 0, 4,50.00,60.00,Wednesday
148,23.274486475127057
596,-38.9604585361945
597,100.0
2,1, 5, 3, 0, 5, 0.00,10.00,Wednesday
148,23.19182989116443
596,-39.21099257392534
597,100.0
2,1, 5, 3, 0, 5,10.00,20.00,Wednesday
148,23.54144390949552
596,-38.6595009745677
597,100.0
2,1, 5, 3, 0, 5,20.00,30.00,Wednesday
148,23.814073970079428
596,-38.16903534988133
597,100.0
2,1, 5, 3, 0, 5,30.00,40.00,Wednesday
148,24.042259461226498
596,-37.80472686520336
597,100.0
2,1, 5, 3, 0, 5,40.00,50.00,Wednesday
148,23.883107647458773
596,-38.10745115038608
597,100.0
2,1, 5, 3, 0, 5,50.00,60.00,Wednesday
148,23.455131985478184
596,-39.00204009719649
597,100.0
2,1, 5, 3, 0, 6, 0.00,10.00,Wednesday
148,23.124330802451018
596,-39.70149610540742
597,100.0
2,1, 5, 3, 0, 6,10.00,20.00,Wednesday
148,22.868032061998777
596,-40.3568581181737
597,100.0
2,1, 5, 3, 0, 6,20.00,30.00,Wednesday
148,22.87143032760186
596,-40.43080396308139
597,100.0
2,1, 5, 3, 0, 6,30.00,40.00,Wednesday
148,22.540637240554028
596,-41.19249490989762
597,100.0
2,1, 5, 3, 0, 6,40.00,50.00,Wednesday
148,22.311391128564943
596,-41.72398482479931
597,100.0
2,1, 5, 3, 0, 6,50.00,60.00,Wednesday
148,22.193477515943028
596,-42.0464005574538
597,100.0
2,1, 5, 3, 0, 7, 0.00,10.00,Wednesday
148,22.340647701856505
596,-41.83636894874657
597,100.0
2,1, 5, 3, 0, 7,10.00,20.00,Wednesday
148,22.631573748366685
596,-41.31382436646463
597,100.0
2,1, 5, 3, 0, 7,20.00,30.00,Wednesday
148,22.896141029684459
596,-40.86980695615198
597,100.0
2,1, 5, 3, 0, 7,30.00,40.00,Wednesday
148,22.180806062526359
596,-42.29190367863131
597,100.0
2,1, 5, 3, 0, 7,40.00,50.00,Wednesday
148,21.949423396428857
596,-42.827672356173838
597,100.0
2,1, 5, 3, 0, 7,50.00,60.00,Wednesday
148,22.783701579209024
596,-41.24253720881696
597,100.0
2,1, 5, 3, 0, 8, 0.00,10.00,Wednesday
148,23.013933431750489
596,-40.710376670055108
597,100.0
2,1, 5, 3, 0, 8,10.00,20.00,Wednesday
148,22.54883255493677
596,-41.60879104901342
597,100.0
2,1, 5, 3, 0, 8,20.00,30.00,Wednesday
148,22.682339775070255
596,-41.32058365913293
597,100.0
2,1, 5, 3, 0, 8,30.00,40.00,Wednesday
148,22.94311599116749
596,-40.75138303694155
597,100.0
2,1, 5, 3, 0, 8,40.00,50.00,Wednesday
148,23.228135929723828
596,-40.101094556640628
597,100.0
2,1, 5, 3, 0, 8,50.00,60.00,Wednesday
148,23.83075172235269
596,-38.850198498779288
597,100.0
2,1, 5, 3, 0, 9, 0.00,10.00,Wednesday
148,24.305380024753057
596,-37.759544311850458
597,100.0
2,1, 5, 3, 0, 9,10.00,20.00,Wednesday
148,24.528171248148856
596,-37.26565834652512
597,100.0
2,1, 5, 3, 0, 9,20.00,30.00,Wednesday
148,24.79318096737697
596,-36.71183044139885
597,100.0
2,1, 5, 3, 0, 9,30.00,40.00,Wednesday
148,25.037273028649346
596,-36.16781256123122
597,100.0
2,1, 5, 3, 0, 9,40.00,50.00,Wednesday
148,25.22238763556618
596,-35.679653208163987
597,100.0
2,1, 5, 3, 0, 9,50.00,60.00,Wednesday
148,25.36818333243456
596,-35.28677182003739
597,100.0
2,1, 5, 3, 0,10, 0.00,10.00,Wednesday
148,27.23509358360063
596,-0.04131796194934284
597,5.035342062848386
2,1, 5, 3, 0,10,10.00,20.00,Wednesday
148,27.463861542354644
596,0.048348386368761857
597,5.048393869713394
2,1, 5, 3, 0,10,20.00,30.00,Wednesday
148,27.789820106827948
596,0.12833908787604224
597,5.341206250669657
2,1, 5, 3, 0,10,30.00,40.00,Wednesday
148,28.287442818037936
596,0.25625720540819449
597,6.363215990609163
2,1, 5, 3, 0,10,40.00,50.00,Wednesday
148,28.348451369521184
596,0.29318439415454719
597,6.785890338979129
2,1, 5, 3, 0,10,50.00,60.00,Wednesday
148,28.25718046925783
596,0.28242663595024489
597,6.656820033390929
2,1, 5, 3, 0,11, 0.00,10.00,Wednesday
148,28.03451147569197
596,0.23460521172408517
597,6.142076456313745
2,1, 5, 3, 0,11,10.00,20.00,Wednesday
148,28.391718965525443
596,0.3222074637363443
597,7.15850948943114
2,1, 5, 3, 0,11,20.00,30.00,Wednesday
148,28.832874838128676
596,0.4415791288144717
597,9.067885662952336
2,1, 5, 3, 0,11,30.00,40.00,Wednesday
148,28.952392237611716
596,0.4895276776095701
597,10.00677246139712
2,1, 5, 3, 0,11,40.00,50.00,Wednesday
148,28.95590938671012
596,0.5026989311066197
597,10.282040445882516
2,1, 5, 3, 0,11,50.00,60.00,Wednesday
148,29.10731833249927
596,0.551457036002319
597,11.366348838780184
2,1, 5, 3, 0,12, 0.00,10.00,Wednesday
148,29.257346006033026
596,0.6075753691050336
597,12.741895718683864
2,1, 5, 3, 0,12,10.00,20.00,Wednesday
148,29.370740402068934
596,0.6375257003117081
597,13.531955404880648
2,1, 5, 3, 0,12,20.00,30.00,Wednesday
148,29.644724213617385
596,0.723769049146699
597,16.02401797448863
2,1, 5, 3, 0,12,30.00,40.00,Wednesday
148,29.78311444442995
596,0.7658690320712074
597,17.356963099551977
2,1, 5, 3, 0,12,40.00,50.00,Wednesday
148,30.03494257711322
596,0.8385013657131804
597,19.833962167621267
2,1, 5, 3, 0,12,50.00,60.00,Wednesday
148,30.28931395597771
596,0.9131743946804375
597,22.610035778437834
2,1, 5, 3, 0,13, 0.00,10.00,Wednesday
148,30.630876099022087
596,1.016702368349455
597,26.828182505841853
2,1, 5, 3, 0,13,10.00,20.00,Wednesday
148,30.689191163815708
596,1.0462891070186927
597,28.108762082213887
2,1, 5, 3, 0,13,20.00,30.00,Wednesday
148,30.692658565432319
596,1.067717216818176
597,29.05610166484192
2,1, 5, 3, 0,13,30.00,40.00,Wednesday
148,30.815107595640268
596,1.0962141515746369
597,30.34108421352643
2,1, 5, 3, 0,13,40.00,50.00,Wednesday
148,30.939211323045435
596,1.1186395893581487
597,31.37186998203866
2,1, 5, 3, 0,13,50.00,60.00,Wednesday
148,31.007689406610419
596,1.1412236246746959
597,32.426800450763028
2,1, 5, 3, 0,14, 0.00,10.00,Wednesday
148,31.062208163533936
596,1.1827482747788297
597,34.40870130463573
2,1, 5, 3, 0,14,10.00,20.00,Wednesday
148,31.294507526622206
596,1.2699534230456045
597,38.733202476793788
2,1, 5, 3, 0,14,20.00,30.00,Wednesday
148,31.399414625487514
596,1.3124045025887235
597,40.90821559909654
2,1, 5, 3, 0,14,30.00,40.00,Wednesday
148,31.422058257556797
596,1.3319014941357344
597,41.920441308145758
2,1, 5, 3, 0,14,40.00,50.00,Wednesday
148,31.92055525937228
596,1.4571163102001672
597,48.57710786009465
2,1, 5, 3, 0,14,50.00,60.00,Wednesday
148,32.456071503855188
596,1.5941304056493027
597,56.02581658842016
2,1, 5, 3, 0,15, 0.00,10.00,Wednesday
148,31.84667785138368
596,0.4687169048479321
597,9.587107732424585
2,1, 5, 3, 0,15,10.00,20.00,Wednesday
148,31.74125473874127
596,0.4586552897427576
597,9.39090304220177
2,1, 5, 3, 0,15,20.00,30.00,Wednesday
148,32.12789000323026
596,0.6624943605754484
597,14.220341980861733
2,1, 5, 3, 0,15,30.00,40.00,Wednesday
148,32.22856441023531
596,0.7476488849427817
597,16.77076204988809
2,1, 5, 3, 0,15,40.00,50.00,Wednesday
148,32.33709863613478
596,0.7944059565465929
597,18.303544099143495
2,1, 5, 3, 0,15,50.00,60.00,Wednesday
148,32.47013968455485
596,0.8802288294580414
597,21.35699754848696
2,1, 5, 3, 0,16, 0.00,10.00,Wednesday
148,32.57469688853958
596,0.9627380749182496
597,24.577306078919393
2,1, 5, 3, 0,16,10.00,20.00,Wednesday
148,32.704980538358018
596,1.0174756162112007
597,26.861238182474084
2,1, 5, 3, 0,16,20.00,30.00,Wednesday
148,32.66556826406857
596,1.0006871085719645
597,26.148590351998693
2,1, 5, 3, 0,16,30.00,40.00,Wednesday
148,32.62491132311709
596,0.9979656040746916
597,26.03406856499008
2,1, 5, 3, 0,16,40.00,50.00,Wednesday
148,32.90799449860409
596,1.0876785342672395
597,29.95323638612659
2,1, 5, 3, 0,16,50.00,60.00,Wednesday
148,32.60789107812164
596,0.930986256099695
597,23.305768645727299
2,1, 5, 3, 0,17, 0.00,10.00,Wednesday
148,32.45067176957254
596,1.8224080062691193
597,68.17182422739451
2,1, 5, 3, 0,17,10.00,20.00,Wednesday
148,32.062449957308547
596,1.7374409189766742
597,63.745700815338967
2,1, 5, 3, 0,17,20.00,30.00,Wednesday
148,31.342579342875319
596,1.5716750639039503
597,54.80265318801125
2,1, 5, 3, 0,17,30.00,40.00,Wednesday
148,31.34844158866649
596,1.5616753663344792
597,54.2577196149171
2,1, 5, 3, 0,17,40.00,50.00,Wednesday
148,31.28916638525953
596,1.5486702502440833
597,53.54900417883858
2,1, 5, 3, 0,17,50.00,60.00,Wednesday
148,31.08776618737896
596,1.5194968232721098
597,51.96021761263087
2,1, 5, 3, 0,18, 0.00,10.00,Wednesday
148,30.690701291678658
596,1.459513576822986
597,48.706566416393147
2,1, 5, 3, 0,18,10.00,20.00,Wednesday
148,30.63230979058359
596,1.4592291047163433
597,48.69120133142494
2,1, 5, 3, 0,18,20.00,30.00,Wednesday
148,30.760490680962353
596,1.4948334165277236
597,50.619556252240069
2,1, 5, 3, 0,18,30.00,40.00,Wednesday
148,30.738703295067795
596,1.4975679080898512
597,50.76803733858649
2,1, 5, 3, 0,18,40.00,50.00,Wednesday
148,30.885715935326965
596,1.5276402277795074
597,52.40347270918786
2,1, 5, 3, 0,18,50.00,60.00,Wednesday
148,31.181493600068654
596,1.587346311150964
597,55.65640392116249
2,1, 5, 3, 0,19, 0.00,10.00,Wednesday
148,29.608339653915
596,-22.425290526115189
597,100.0
2,1, 5, 3, 0,19,10.00,20.00,Wednesday
148,29.417366689167744
596,-22.890447176805819
597,100.0
2,1, 5, 3, 0,19,20.00,30.00,Wednesday
148,29.323256036844179
596,-23.147553530133295
597,100.0
2,1, 5, 3, 0,19,30.00,40.00,Wednesday
148,29.047657297066789
596,-23.545401867124896
597,100.0
2,1, 5, 3, 0,19,40.00,50.00,Wednesday
148,28.715359684016855
596,-24.101405382152924
597,100.0
2,1, 5, 3, 0,19,50.00,60.00,Wednesday
148,28.581650738695836
596,-24.47893711654887
597,100.0
2,1, 5, 3, 0,20, 0.00,10.00,Wednesday
148,28.571468163003453
596,-24.58408501129889
597,100.0
2,1, 5, 3, 0,20,10.00,20.00,Wednesday
148,28.49915604150178
596,-24.781111627296438
597,100.0
2,1, 5, 3, 0,20,20.00,30.00,Wednesday
148,28.19840500353382
596,-25.364439430261024
597,100.0
2,1, 5, 3, 0,20,30.00,40.00,Wednesday
148,27.967696496926736
596,-25.82487119069639
597,100.0
2,1, 5, 3, 0,20,40.00,50.00,Wednesday
148,27.54840541147097
596,-26.62293601083917
597,100.0
2,1, 5, 3, 0,20,50.00,60.00,Wednesday
148,27.396908639084683
596,-27.04594614101052
597,100.0
2,1, 5, 3, 0,21, 0.00,10.00,Wednesday
148,27.153426864370386
596,-27.604026941040329
597,100.0
2,1, 5, 3, 0,21,10.00,20.00,Wednesday
148,27.064768847985673
596,-27.91004649338159
597,100.0
2,1, 5, 3, 0,21,20.00,30.00,Wednesday
148,26.830881427153647
596,-28.436041523490358
597,100.0
2,1, 5, 3, 0,21,30.00,40.00,Wednesday
148,26.458777427001345
596,-29.192561930273884
597,100.0
2,1, 5, 3, 0,21,40.00,50.00,Wednesday
148,26.675610027146676
596,-28.89333653793533
597,100.0
2,1, 5, 3, 0,21,50.00,60.00,Wednesday
148,26.48633816010116
596,-29.33570793924827
597,100.0
2,1, 5, 3, 0,22, 0.00,10.00,Wednesday
148,26.54920974227047
596,-29.29524763353317
597,100.0
2,1, 5, 3, 0,22,10.00,20.00,Wednesday
148,26.47099801508817
596,-29.48357307508714
597,100.0
2,1, 5, 3, 0,22,20.00,30.00,Wednesday
148,26.073265003765849
596,-30.38504548013612
597,100.0
2,1, 5, 3, 0,22,30.00,40.00,Wednesday
148,25.986522744431239
596,-30.678746418702685
597,100.0
2,1, 5, 3, 0,22,40.00,50.00,Wednesday
148,26.135739542390266
596,-30.48192816897167
597,100.0
2,1, 5, 3, 0,22,50.00,60.00,Wednesday
148,26.06958396757542
596,-30.669253496099605
597,100.0
2,1, 5, 3, 0,23, 0.00,10.00,Wednesday
148,26.30664177138363
596,-30.3951333576145
597,100.0
2,1, 5, 3, 0,23,10.00,20.00,Wednesday
148,26.281339832514843
596,-30.462082959130965
597,100.0
2,1, 5, 3, 0,23,20.00,30.00,Wednesday
148,26.22346203762688
596,-30.6318219789547
597,100.0
2,1, 5, 3, 0,23,30.00,40.00,Wednesday
148,26.370604734373928
596,-30.51521898007275
597,100.0
2,1, 5, 3, 0,23,40.00,50.00,Wednesday
148,26.386961959099
596,-30.565155408154639
597,100.0
2,1, 5, 3, 0,23,50.00,60.00,Wednesday
148,26.332860142580544
596,-30.721406792736788
597,100.0
2,1, 5, 3, 0,24, 0.00,10.00,Wednesday
148,26.41040456602761
596,-30.66099147392687
597,100.0
2,1, 5, 3, 0,24,10.00,20.00,Wednesday
148,26.466077572187918
596,-30.64729016720047
597,100.0
2,1, 5, 3, 0,24,20.00,30.00,Wednesday
148,26.31072850775646
596,-30.967498795852096
597,100.0
2,1, 5, 3, 0,24,30.00,40.00,Wednesday
148,26.263605520102595
596,-31.111041591799418
597,100.0
2,1, 5, 3, 0,24,40.00,50.00,Wednesday
148,26.137858046884394
596,-31.408281645889635
597,100.0
2,1, 5, 3, 0,24,50.00,60.00,Wednesday
148,26.127776478005225
596,-31.491423075254358
597,100.0
2,2, 5, 4, 0, 1, 0.00,10.00,Thursday
148,26.40122021605474
596,-31.1000338536875
597,100.0
2,2, 5, 4, 0, 1,10.00,20.00,Thursday
148,26.521316879158545
596,-30.959288155806556
597,100.0
2,2, 5, 4, 0, 1,20.00,30.00,Thursday
148,26.26799377325332
596,-31.442226971157426
597,100.0
2,2, 5, 4, 0, 1,30.00,40.00,Thursday
148,25.963809188149598
596,-32.05042877635741
597,100.0
2,2, 5, 4, 0, 1,40.00,50.00,Thursday
148,25.961152925256234
596,-32.12716386246617
597,100.0
2,2, 5, 4, 0, 1,50.00,60.00,Thursday
148,26.07077633542416
596,-32.000336251803449
597,100.0
2,2, 5, 4, 0, 2, 0.00,10.00,Thursday
148,26.26775363234214
596,-31.721920042837536
597,100.0
2,2, 5, 4, 0, 2,10.00,20.00,Thursday
148,26.207312270290918
596,-31.87856810946525
597,100.0
2,2, 5, 4, 0, 2,20.00,30.00,Thursday
148,26.197473312965447
596,-31.939147719891908
597,100.0
2,2, 5, 4, 0, 2,30.00,40.00,Thursday
148,26.083921348224277
596,-32.194329885357308
597,100.0
2,2, 5, 4, 0, 2,40.00,50.00,Thursday
148,25.945735149078108
596,-32.49247333225715
597,100.0
2,2, 5, 4, 0, 2,50.00,60.00,Thursday
148,25.87658233403644
596,-32.68814117422713
597,100.0
2,2, 5, 4, 0, 3, 0.00,10.00,Thursday
148,25.969340596339874
596,-32.60967160628451
597,100.0
2,2, 5, 4, 0, 3,10.00,20.00,Thursday
148,25.750440504510228
596,-33.070872888187327
597,100.0
2,2, 5, 4, 0, 3,20.00,30.00,Thursday
148,25.755166768750415
596,-33.15759651066812
597,100.0
2,2, 5, 4, 0, 3,30.00,40.00,Thursday
148,25.40895623744248
596,-33.831617222293818
597,100.0
2,2, 5, 4, 0, 3,40.00,50.00,Thursday
148,25.22415534378771
596,-34.23805240305013
597,100.0
2,2, 5, 4, 0, 3,50.00,60.00,Thursday
148,25.345710084008837
596,-34.1318612768791
597,100.0
2,2, 5, 4, 0, 4, 0.00,10.00,Thursday
148,25.303102648315816
596,-34.291364917791
597,100.0
2,2, 5, 4, 0, 4,10.00,20.00,Thursday
148,25.153630625018118
596,-34.623413449647298
597,100.0
2,2, 5, 4, 0, 4,20.00,30.00,Thursday
148,25.0002143307727
596,-34.98401920175854
597,100.0
2,2, 5, 4, 0, 4,30.00,40.00,Thursday
148,24.836725998577785
596,-35.364375375617637
597,100.0
2,2, 5, 4, 0, 4,40.00,50.00,Thursday
148,24.761109069894727
596,-35.573931379208449
597,100.0
2,2, 5, 4, 0, 4,50.00,60.00,Thursday
148,24.702374624797338
596,-35.71654230684888
597,100.0
2,2, 5, 4, 0, 5, 0.00,10.00,Thursday
148,24.62149611441568
596,-35.97273487865383
597,100.0
2,2, 5, 4, 0, 5,10.00,20.00,Thursday
148,24.488043825609297
596,-36.304913562040258
597,100.0
2,2, 5, 4, 0, 5,20.00,30.00,Thursday
148,24.224479088002558
596,-36.832259186539868
597,100.0
2,2, 5, 4, 0, 5,30.00,40.00,Thursday
148,24.155962588763836
596,-37.036788416708748
597,100.0
2,2, 5, 4, 0, 5,40.00,50.00,Thursday
148,24.16040024815277
596,-37.13683347213508
597,100.0
2,2, 5, 4, 0, 5,50.00,60.00,Thursday
148,24.079507457700339
596,-37.380457271432607
597,100.0
2,2, 5, 4, 0, 6, 0.00,10.00,Thursday
148,24.25844002743015
596,-37.10648208710666
597,100.0
2,2, 5, 4, 0, 6,10.00,20.00,Thursday
148,23.59658774034351
596,-38.4127266191086
597,100.0
2,2, 5, 4, 0, 6,20.00,30.00,Thursday
148,23.33432437532914
596,-39.01963893069908
597,100.0
2,2, 5, 4, 0, 6,30.00,40.00,Thursday
148,22.9872065008583
596,-39.787594906842297
597,100.0
2,2, 5, 4, 0, 6,40.00,50.00,Thursday
148,22.77230720899802
596,-40.31372546057841
597,100.0
2,2, 5, 4, 0, 6,50.00,60.00,Thursday
148,22.95192873229771
596,-40.02074818889007
597,100.0
2,2, 5, 4, 0, 7, 0.00,10.00,Thursday
148,23.382373890114527
596,-39.26519847990191
597,100.0
2,2, 5, 4, 0, 7,10.00,20.00,Thursday
148,23.620092248443418
596,-38.82854082217573
597,100.0
2,2, 5, 4, 0, 7,20.00,30.00,Thursday
148,23.32289398413043
596,-39.4021236559211
597,100.0
2,2, 5, 4, 0, 7,30.00,40.00,Thursday
148,23.601286359844936
596,-38.98578142485341
597,100.0
2,2, 5, 4, 0, 7,40.00,50.00,Thursday
148,23.842410510963455
596,-38.52203603226368
597,100.0
2,2, 5, 4, 0, 7,50.00,60.00,Thursday
148,23.98472956701168
596,-38.26039252345016
597,100.0
2,2, 5, 4, 0, 8, 0.00,10.00,Thursday
148,23.9998436818995
596,-38.2238539454047
597,100.0
2,2, 5, 4, 0, 8,10.00,20.00,Thursday
148,23.82998943258316
596,-38.50404501999063
597,100.0
2,2, 5, 4, 0, 8,20.00,30.00,Thursday
148,23.67454131825729
596,-38.76954282115116
597,100.0
2,2, 5, 4, 0, 8,30.00,40.00,Thursday
148,23.77989643146632
596,-38.51192115613037
597,100.0
2,2, 5, 4, 0, 8,40.00,50.00,Thursday
148,24.011466585939897
596,-37.98249588663107
597,100.0
2,2, 5, 4, 0, 8,50.00,60.00,Thursday
148,24.43123395349332
596,-37.14403293187675
597,100.0
2,2, 5, 4, 0, 9, 0.00,10.00,Thursday
148,24.800077412990789
596,-36.392653744599197
597,100.0
2,2, 5, 4, 0, 9,10.00,20.00,Thursday
148,25.02602175169571
596,-35.98424490380523
597,100.0
2,2, 5, 4, 0, 9,20.00,30.00,Thursday
148,25.25583471944252
596,-35.41484053678301
597,100.0
2,2, 5, 4, 0, 9,30.00,40.00,Thursday
148,25.493345011119588
596,-34.86779050486384
597,100.0
2,2, 5, 4, 0, 9,40.00,50.00,Thursday
148,25.689548351664479
596,-34.37140441323359
597,100.0
2,2, 5, 4, 0, 9,50.00,60.00,Thursday
148,25.79299684592706
596,-34.16298341377478
597,100.0
2,2, 5, 4, 0,10, 0.00,10.00,Thursday
148,27.39380233724577
596,-0.003120583888023355
597,5.000201582463916
2,2, 5, 4, 0,10,10.00,20.00,Thursday
148,27.47787898951686
596,0.04200283990979294
597,5.036523512164692
2,2, 5, 4, 0,10,20.00,30.00,Thursday
148,27.752605303807039
596,0.11488402502696561
597,5.273373009733703
2,2, 5, 4, 0,10,30.00,40.00,Thursday
148,27.979824974247785
596,0.16851514113954753
597,5.588577252573515
2,2, 5, 4, 0,10,40.00,50.00,Thursday
148,28.125442812627616
596,0.21665773682685766
597,5.973687836588553
2,2, 5, 4, 0,10,50.00,60.00,Thursday
148,28.36982790381564
596,0.2867683316967717
597,6.708323199686717
2,2, 5, 4, 0,11, 0.00,10.00,Thursday
148,28.546706711557787
596,0.3428104545179552
597,7.444688639062804
2,2, 5, 4, 0,11,10.00,20.00,Thursday
148,28.599918082538499
596,0.3696622740395935
597,7.844745951403738
2,2, 5, 4, 0,11,20.00,30.00,Thursday
148,28.74733085808928
596,0.4152172846242826
597,8.593817043429397
2,2, 5, 4, 0,11,30.00,40.00,Thursday
148,28.895198776949895
596,0.467325208067874
597,9.559709311515548
2,2, 5, 4, 0,11,40.00,50.00,Thursday
148,28.97308549181279
596,0.4916090462396871
597,10.04977281131815
2,2, 5, 4, 0,11,50.00,60.00,Thursday
148,29.221263084970514
596,0.5682503876196478
597,11.763654467440106
2,2, 5, 4, 0,12, 0.00,10.00,Thursday
148,29.408845151311686
596,0.6355146110337618
597,13.477685948584949
2,2, 5, 4, 0,12,10.00,20.00,Thursday
148,29.714455535473925
596,0.7172126657676753
597,15.823283305594217
2,2, 5, 4, 0,12,20.00,30.00,Thursday
148,29.944395917568629
596,0.7930175760288148
597,18.256690081301984
2,2, 5, 4, 0,12,30.00,40.00,Thursday
148,30.122465788477514
596,0.8465879868111956
597,20.123475780315404
2,2, 5, 4, 0,12,40.00,50.00,Thursday
148,30.212568803684925
596,0.8818585058351822
597,21.417938780735498
2,2, 5, 4, 0,12,50.00,60.00,Thursday
148,30.255339615774724
596,0.8999176394541003
597,22.10052510102227
2,2, 5, 4, 0,13, 0.00,10.00,Thursday
148,30.403356278822029
596,0.950662756219433
597,24.089047724585855
2,2, 5, 4, 0,13,10.00,20.00,Thursday
148,30.6751138103168
596,1.045377369458783
597,28.068820812210448
2,2, 5, 4, 0,13,20.00,30.00,Thursday
148,30.902125378019425
596,1.108794735071349
597,30.917265669636565
2,2, 5, 4, 0,13,30.00,40.00,Thursday
148,30.988997927621154
596,1.140407653928524
597,32.38839718078262
2,2, 5, 4, 0,13,40.00,50.00,Thursday
148,31.10669378831335
596,1.1741721756840816
597,33.99503323952878
2,2, 5, 4, 0,13,50.00,60.00,Thursday
148,31.283621946111468
596,1.2279061346106522
597,36.62224251897363
2,2, 5, 4, 0,14, 0.00,10.00,Thursday
148,31.41271987873296
596,1.277917451417865
597,39.13804880993204
2,2, 5, 4, 0,14,10.00,20.00,Thursday
148,31.566665671136368
596,1.3153437887359363
597,41.06030604529592
2,2, 5, 4, 0,14,20.00,30.00,Thursday
148,31.59860339497469
596,1.3273216952479679
597,41.681968069281548
2,2, 5, 4, 0,14,30.00,40.00,Thursday
148,31.568982757885864
596,1.329308105005455
597,41.78534979394539
2,2, 5, 4, 0,14,40.00,50.00,Thursday
148,31.683165535412145
596,1.3466540439540445
597,42.691431915716048
2,2, 5, 4, 0,14,50.00,60.00,Thursday
148,31.81529614541592
596,1.416555987357004
597,46.39613251031427
2,2, 5, 4, 0,15, 0.00,10.00,Thursday
148,32.08636453511224
596,0.5758735201027279
597,11.948042866433667
2,2, 5, 4, 0,15,10.00,20.00,Thursday
148,31.950621211052654
596,0.5302172533921706
597,10.881354941408745
2,2, 5, 4, 0,15,20.00,30.00,Thursday
148,32.002858294919757
596,0.5419801179754933
597,11.147535798832095
2,2, 5, 4, 0,15,30.00,40.00,Thursday
148,31.977871469510207
596,0.525171055050673
597,10.769001635694253
2,2, 5, 4, 0,15,40.00,50.00,Thursday
148,31.98133109082808
596,0.5504543601207562
597,11.343013865679567
2,2, 5, 4, 0,15,50.00,60.00,Thursday
148,32.076341540111929
596,0.6225454917359894
597,13.131927073674718
2,2, 5, 4, 0,16, 0.00,10.00,Thursday
148,32.425177133237649
596,0.805909974120655
597,18.69491298396828
2,2, 5, 4, 0,16,10.00,20.00,Thursday
148,32.712859177630338
596,0.9689578798804346
597,24.831025971483088
2,2, 5, 4, 0,16,20.00,30.00,Thursday
148,32.77760203970327
596,1.0128033454904082
597,26.66184330879362
2,2, 5, 4, 0,16,30.00,40.00,Thursday
148,32.881012384030537
596,1.0634806296112279
597,28.867498764270964
2,2, 5, 4, 0,16,40.00,50.00,Thursday
148,32.879493081131418
596,1.0477402969696046
597,28.172397799534026
2,2, 5, 4, 0,16,50.00,60.00,Thursday
148,32.70356538467161
596,0.9704857059838076
597,24.893579867096265
2,2, 5, 4, 0,17, 0.00,10.00,Thursday
148,32.74403810337882
596,1.8774035619595689
597,70.94153467987133
2,2, 5, 4, 0,17,10.00,20.00,Thursday
148,33.05618428139241
596,1.9389704000208934
597,73.93158947337294
2,2, 5, 4, 0,17,20.00,30.00,Thursday
148,32.98101635734395
596,1.9293491294757053
597,73.47278849395998
2,2, 5, 4, 0,17,30.00,40.00,Thursday
148,32.96208401099953
596,1.9343174801173422
597,73.71011936766443
2,2, 5, 4, 0,17,40.00,50.00,Thursday
148,32.80621729475429
596,1.9014438778757679
597,72.12400889568002
2,2, 5, 4, 0,17,50.00,60.00,Thursday
148,32.72307069172272
596,1.8725844574345599
597,70.70232559001431
2,2, 5, 4, 0,18, 0.00,10.00,Thursday
148,32.6145703350089
596,1.8499202299653226
597,69.56807186751908
2,2, 5, 4, 0,18,10.00,20.00,Thursday
148,32.619128693180169
596,1.8527865265576012
597,69.71234085525517
2,2, 5, 4, 0,18,20.00,30.00,Thursday
148,32.67256503790256
596,1.8715373138316465
597,70.65025460020218
2,2, 5, 4, 0,18,30.00,40.00,Thursday
148,32.7496907093343
596,1.8938456918114549
597,71.75226450938742
2,2, 5, 4, 0,18,40.00,50.00,Thursday
148,32.84314914119779
596,1.9165331388496796
597,72.85661803245752
2,2, 5, 4, 0,18,50.00,60.00,Thursday
148,32.74304416071948
596,1.8896726052947435
597,71.54730397969782
2,2, 5, 4, 0,19, 0.00,10.00,Thursday
148,31.397688081431224
596,-19.291638651708703
597,100.0
2,2, 5, 4, 0,19,10.00,20.00,Thursday
148,30.954045541757563
596,-20.033453579053864
597,100.0
2,2, 5, 4, 0,19,20.00,30.00,Thursday
148,30.886238477030724
596,-20.14227451037985
597,100.0
2,2, 5, 4, 0,19,30.00,40.00,Thursday
148,30.62045811835538
596,-20.56949649698595
597,100.0
2,2, 5, 4, 0,19,40.00,50.00,Thursday
148,30.582909172258778
596,-20.704698663533514
597,100.0
2,2, 5, 4, 0,19,50.00,60.00,Thursday
148,30.489923764844268
596,-20.9783392252148
597,100.0
2,2, 5, 4, 0,20, 0.00,10.00,Thursday
148,30.33108765301766
596,-21.274532345897386
597,100.0
2,2, 5, 4, 0,20,10.00,20.00,Thursday
148,30.093071368013516
596,-21.6802982296607
597,100.0
2,2, 5, 4, 0,20,20.00,30.00,Thursday
148,29.87070259097031
596,-22.068330144618355
597,100.0
2,2, 5, 4, 0,20,30.00,40.00,Thursday
148,29.716668888370824
596,-22.34130548040867
597,100.0
2,2, 5, 4, 0,20,40.00,50.00,Thursday
148,29.584856895988584
596,-22.576572428074404
597,100.0
2,2, 5, 4, 0,20,50.00,60.00,Thursday
148,29.497809037504174
596,-22.72979130322342
597,100.0
2,2, 5, 4, 0,21, 0.00,10.00,Thursday
148,29.415057779382037
596,-22.900070919365957
597,100.0
2,2, 5, 4, 0,21,10.00,20.00,Thursday
148,29.331721421477579
596,-23.062175996007686
597,100.0
2,2, 5, 4, 0,21,20.00,30.00,Thursday
148,29.226187153126494
596,-23.28282627328754
597,100.0
2,2, 5, 4, 0,21,30.00,40.00,Thursday
148,29.183149531185128
596,-23.38903052327059
597,100.0
2,2, 5, 4, 0,21,40.00,50.00,Thursday
148,29.120778403005553
596,-23.534199780553807
597,100.0
2,2, 5, 4, 0,21,50.00,60.00,Thursday
148,28.986214592220717
596,-23.79184656312747
597,100.0
2,2, 5, 4, 0,22, 0.00,10.00,Thursday
148,28.74130344910886
596,-24.266580569729628
597,100.0
2,2, 5, 4, 0,22,10.00,20.00,Thursday
148,28.642375082778046
596,-24.502162493996594
597,100.0
2,2, 5, 4, 0,22,20.00,30.00,Thursday
148,28.479050339083359
596,-24.886837805571365
597,100.0
2,2, 5, 4, 0,22,30.00,40.00,Thursday
148,28.47736061305414
596,-24.899411789209674
597,100.0
2,2, 5, 4, 0,22,40.00,50.00,Thursday
148,28.4619748878324
596,-25.018732229313448
597,100.0
2,2, 5, 4, 0,22,50.00,60.00,Thursday
148,28.536476183673178
596,-25.002276590568678
597,100.0
2,2, 5, 4, 0,23, 0.00,10.00,Thursday
148,28.4780910701931
596,-25.15465517124491
597,100.0
2,2, 5, 4, 0,23,10.00,20.00,Thursday
148,28.474518228202773
596,-25.26001352113709
597,100.0
2,2, 5, 4, 0,23,20.00,30.00,Thursday
148,28.393171147795397
596,-25.451496100626053
597,100.0
2,2, 5, 4, 0,23,30.00,40.00,Thursday
148,28.268536674492588
596,-25.755219799899267
597,100.0
2,2, 5, 4, 0,23,40.00,50.00,Thursday
148,28.16173124716074
596,-26.026350867730565
597,100.0
2,2, 5, 4, 0,23,50.00,60.00,Thursday
148,28.12456948679918
596,-26.13595833431989
597,100.0
2,2, 5, 4, 0,24, 0.00,10.00,Thursday
148,28.105128584456506
596,-26.224360084701265
597,100.0
2,2, 5, 4, 0,24,10.00,20.00,Thursday
148,27.902466043606393
596,-26.647731339731757
597,100.0
2,2, 5, 4, 0,24,20.00,30.00,Thursday
148,27.81400564667862
596,-26.913300473101129
597,100.0
2,2, 5, 4, 0,24,30.00,40.00,Thursday
148,27.830575141739844
596,-26.96928664698961
597,100.0
2,2, 5, 4, 0,24,40.00,50.00,Thursday
148,27.78579136103403
596,-27.165536000310764
597,100.0
2,2, 5, 4, 0,24,50.00,60.00,Thursday
148,27.60469217763946
596,-27.517097180093907
597,100.0
2,3, 5, 5, 0, 1, 0.00,10.00,Friday
148,27.46126556120271
596,-27.85694710991775
597,100.0
2,3, 5, 5, 0, 1,10.00,20.00,Friday
148,27.406693475287498
596,-28.016532847258419
597,100.0
2,3, 5, 5, 0, 1,20.00,30.00,Friday
148,27.44212891189778
596,-28.05028798632704
597,100.0
2,3, 5, 5, 0, 1,30.00,40.00,Friday
148,27.45018866383399
596,-28.072733197885208
597,100.0
2,3, 5, 5, 0, 1,40.00,50.00,Friday
148,27.234088296423239
596,-28.543955267885506
597,100.0
2,3, 5, 5, 0, 1,50.00,60.00,Friday
148,27.22864832637012
596,-28.63341328349633
597,100.0
2,3, 5, 5, 0, 2, 0.00,10.00,Friday
148,27.244953331307188
596,-28.68485737920776
597,100.0
2,3, 5, 5, 0, 2,10.00,20.00,Friday
148,27.228279507205487
596,-28.815327241942307
597,100.0
2,3, 5, 5, 0, 2,20.00,30.00,Friday
148,27.00912013345413
596,-29.270692961147167
597,100.0
2,3, 5, 5, 0, 2,30.00,40.00,Friday
148,26.22836947794489
596,-30.752439414911096