Program Version,EnergyPlus, Version 9.5.0-de239b2e5f, YMD=2021.12.09 19:01
1,5,Environment Title[],Latitude[deg],Longitude[deg],Time Zone[],Elevation[m]
2,8,Day of Simulation[],Month[],Day of Month[],DST Indicator[1=yes 0=no],Hour[],StartMinute[],EndMinute[],DayType
3,5,Cumulative Day of Simulation[],Month[],Day of Month[],DST Indicator[1=yes 0=no],DayType  ! When Daily Report Variables Requested
4,2,Cumulative Days of Simulation[],Month[]  ! When Monthly Report Variables Requested
5,1,Cumulative Days of Simulation[] ! When Run Period Report Variables Requested
6,1,Calendar Year of Simulation[] ! When Annual Report Variables Requested
148,1,THERMAL ZONE: JORGE,Zone Mean Air Temperature [C] !TimeStep
596,1,JORGE,Zone Thermal Comfort Fanger Model PMV [] !TimeStep
597,1,JORGE,Zone Thermal Comfort Fanger Model PPD [%] !TimeStep
End of Data Dictionary
1,RUN PERIOD 1,  18.85, -99.14,  -6.00,1280.00
2,1, 5, 3, 0, 1, 0.00,10.00,Wednesday
148,25.50426682161255
596,-1.3660470738245263
597,43.71114921503885
2,1, 5, 3, 0, 1,10.00,20.00,Wednesday
148,25.538169701773506
596,-1.3703081295053148
597,43.93609703940741
2,1, 5, 3, 0, 1,20.00,30.00,Wednesday
148,25.703557441037395
596,-1.3249485660454237
597,41.55856501238655
2,1, 5, 3, 0, 1,30.00,40.00,Wednesday
148,25.668068534328165
596,-1.3469997448025433
597,42.70954898318694
2,1, 5, 3, 0, 1,40.00,50.00,Wednesday
148,25.454483136275817
596,-1.4243166934507834
597,46.81193278413183
2,1, 5, 3, 0, 1,50.00,60.00,Wednesday
148,25.178846911006589
596,-1.5215512381260943
597,52.07201928644659
2,1, 5, 3, 0, 2, 0.00,10.00,Wednesday
148,24.95427741801158
596,-1.6098044297724466
597,56.878682634847788
2,1, 5, 3, 0, 2,10.00,20.00,Wednesday
148,24.743221677568465
596,-1.6896601884819627
597,61.19735728409447
2,1, 5, 3, 0, 2,20.00,30.00,Wednesday
148,24.413745509385799
596,-1.8093602797019
597,67.50273636544287
2,1, 5, 3, 0, 2,30.00,40.00,Wednesday
148,24.25195582996298
596,-1.8772085341774776
597,70.9318677180743
2,1, 5, 3, 0, 2,40.00,50.00,Wednesday
148,24.276949620106753
596,-1.884515140753425
597,71.2932330598024
2,1, 5, 3, 0, 2,50.00,60.00,Wednesday
148,24.390933703688846
596,-1.8634565819424769
597,70.24732221860615
2,1, 5, 3, 0, 3, 0.00,10.00,Wednesday
148,24.452339667795074
596,-1.8574332707581514
597,69.94572691768266
2,1, 5, 3, 0, 3,10.00,20.00,Wednesday
148,24.74706084333538
596,-1.7816097716277318
597,66.06610510758392
2,1, 5, 3, 0, 3,20.00,30.00,Wednesday
148,25.000312324389303
596,-1.7135411336349916
597,62.47534875936718
2,1, 5, 3, 0, 3,30.00,40.00,Wednesday
148,24.877253533634915
596,-1.7629549972239947
597,65.09078770180804
2,1, 5, 3, 0, 3,40.00,50.00,Wednesday
148,24.79790235628067
596,-1.7975111616271689
597,66.89149945486014
2,1, 5, 3, 0, 3,50.00,60.00,Wednesday
148,24.746490074433856
596,-1.828047430191688
597,68.45967277750921
2,1, 5, 3, 0, 4, 0.00,10.00,Wednesday
148,24.655308176250459
596,-1.8683972224794352
597,70.4939104288626
2,1, 5, 3, 0, 4,10.00,20.00,Wednesday
148,24.459715679060844
596,-1.938119093426165
597,73.89112661753144
2,1, 5, 3, 0, 4,20.00,30.00,Wednesday
148,24.452597234448036
596,-1.960104498656855
597,74.92765660839103
2,1, 5, 3, 0, 4,30.00,40.00,Wednesday
148,23.958205608929477
596,-2.129011566643066
597,82.23339774638717
2,1, 5, 3, 0, 4,40.00,50.00,Wednesday
148,23.398917846950338
596,-2.335791422827896
597,89.33527695954415
2,1, 5, 3, 0, 4,50.00,60.00,Wednesday
148,23.274486475127057
596,-2.3975182114764839
597,91.0333094358954
2,1, 5, 3, 0, 5, 0.00,10.00,Wednesday
148,23.19182989116443
596,-2.440001305716738
597,92.09021315056212
2,1, 5, 3, 0, 5,10.00,20.00,Wednesday
148,23.54144390949552
596,-2.347060286627544
597,89.65977108472939
2,1, 5, 3, 0, 5,20.00,30.00,Wednesday
148,23.814073970079428
596,-2.2640064562446309
597,87.11523392589898
2,1, 5, 3, 0, 5,30.00,40.00,Wednesday
148,24.042259461226498
596,-2.2026470373327977
597,85.00893982085479
2,1, 5, 3, 0, 5,40.00,50.00,Wednesday
148,23.883107647458773
596,-2.253345798041346
597,86.76301335486981
2,1, 5, 3, 0, 5,50.00,60.00,Wednesday
148,23.455131985478184
596,-2.4044909077839935
597,91.21297185721962
2,1, 5, 3, 0, 6, 0.00,10.00,Wednesday
148,23.124330802451018
596,-2.5216996036524406
597,93.87473380311651
2,1, 5, 3, 0, 6,10.00,20.00,Wednesday
148,22.868032061998777
596,-2.633396865987478
597,95.82008077002077
2,1, 5, 3, 0, 6,20.00,30.00,Wednesday
148,22.87143032760186
596,-2.646042923712312
597,96.006986651465
2,1, 5, 3, 0, 6,30.00,40.00,Wednesday
148,22.540637240554028
596,-2.775554596767859
597,97.57620734819028
2,1, 5, 3, 0, 6,40.00,50.00,Wednesday
148,22.311391128564943
596,-2.865842986633595
597,98.34713579425928
2,1, 5, 3, 0, 6,50.00,60.00,Wednesday
148,22.193477515943028
596,-2.920882298260672
597,98.71045457966202
2,1, 5, 3, 0, 7, 0.00,10.00,Wednesday
148,22.340647701856505
596,-2.885469407643871
597,98.48514906695923
2,1, 5, 3, 0, 7,10.00,20.00,Wednesday
148,22.631573748366685
596,-2.797049488823599
597,97.7814120412497
2,1, 5, 3, 0, 7,20.00,30.00,Wednesday
148,22.896141029684459
596,-2.721726101883081
597,96.99659468501315
2,1, 5, 3, 0, 7,30.00,40.00,Wednesday
148,22.180806062526359
596,-2.963225873569892
597,98.94306836216181
2,1, 5, 3, 0, 7,40.00,50.00,Wednesday
148,21.949423396428857
596,-3.0540844759262897
597,99.32680055934616
2,1, 5, 3, 0, 7,50.00,60.00,Wednesday
148,22.783701579209024
596,-2.7860604683724046
597,97.67829484335613
2,1, 5, 3, 0, 8, 0.00,10.00,Wednesday
148,23.013933431750489
596,-2.695053693887349
597,96.6722352106472
2,1, 5, 3, 0, 8,10.00,20.00,Wednesday
148,22.54883255493677
596,-2.8473590390674485
597,98.20804182154802
2,1, 5, 3, 0, 8,20.00,30.00,Wednesday
148,22.682339775070255
596,-2.7979846075915697
597,97.79001656418973
2,1, 5, 3, 0, 8,30.00,40.00,Wednesday
148,22.94311599116749
596,-2.701246226004412
597,96.74983642643042
2,1, 5, 3, 0, 8,40.00,50.00,Wednesday
148,23.228135929723828
596,-2.590784768236465
597,95.14182312269195
2,1, 5, 3, 0, 8,50.00,60.00,Wednesday
148,23.83075172235269
596,-2.3796916127738907
597,90.56282118576179
2,1, 5, 3, 0, 9, 0.00,10.00,Wednesday
148,24.305380024753057
596,-2.1945053914363865
597,84.71519019628082
2,1, 5, 3, 0, 9,10.00,20.00,Wednesday
148,24.528171248148856
596,-2.110884454849746
597,81.50997948681206
2,1, 5, 3, 0, 9,20.00,30.00,Wednesday
148,24.79318096737697
596,-2.017140223712246
597,77.53036343567975
2,1, 5, 3, 0, 9,30.00,40.00,Wednesday
148,25.037273028649346
596,-1.924795860882305
597,73.25452563154187
2,1, 5, 3, 0, 9,40.00,50.00,Wednesday
148,25.22238763556618
596,-1.8412282558256413
597,69.12917118607533
2,1, 5, 3, 0, 9,50.00,60.00,Wednesday
148,25.36818333243456
596,-1.7741820187261537
597,65.67863859593794
2,1, 5, 3, 0,10, 0.00,10.00,Wednesday
148,27.23509358360063
596,-0.04131796194934284
597,5.035342062848386
2,1, 5, 3, 0,10,10.00,20.00,Wednesday
148,27.463861542354644
596,0.048348386368761857
597,5.048393869713394
2,1, 5, 3, 0,10,20.00,30.00,Wednesday
148,27.789820106827948
596,0.12833908787604224
597,5.341206250669657
2,1, 5, 3, 0,10,30.00,40.00,Wednesday
148,28.287442818037936
596,0.25625720540819449
597,6.363215990609163
2,1, 5, 3, 0,10,40.00,50.00,Wednesday
148,28.348451369521184
596,0.29318439415454719
597,6.785890338979129
2,1, 5, 3, 0,10,50.00,60.00,Wednesday
148,28.25718046925783
596,0.28242663595024489
597,6.656820033390929
2,1, 5, 3, 0,11, 0.00,10.00,Wednesday
148,28.03451147569197
596,0.23460521172408517
597,6.142076456313745
2,1, 5, 3, 0,11,10.00,20.00,Wednesday
148,28.391718965525443
596,0.3222074637363443
597,7.15850948943114
2,1, 5, 3, 0,11,20.00,30.00,Wednesday
148,28.832874838128676
596,0.4415791288144717
597,9.067885662952336
2,1, 5, 3, 0,11,30.00,40.00,Wednesday
148,28.952392237611716
596,0.4895276776095701
597,10.00677246139712
2,1, 5, 3, 0,11,40.00,50.00,Wednesday
148,28.95590938671012
596,0.5026989311066197
597,10.282040445882516
2,1, 5, 3, 0,11,50.00,60.00,Wednesday
148,29.10731833249927
596,0.551457036002319
597,11.366348838780184
2,1, 5, 3, 0,12, 0.00,10.00,Wednesday
148,29.257346006033026
596,0.6075753691050336
597,12.741895718683864
2,1, 5, 3, 0,12,10.00,20.00,Wednesday
148,29.370740402068934
596,0.6375257003117081
597,13.531955404880648
2,1, 5, 3, 0,12,20.00,30.00,Wednesday
148,29.644724213617385
596,0.723769049146699
597,16.02401797448863
2,1, 5, 3, 0,12,30.00,40.00,Wednesday
148,29.78311444442995
596,0.7658690320712074
597,17.356963099551977
2,1, 5, 3, 0,12,40.00,50.00,Wednesday
148,30.03494257711322
596,0.8385013657131804
597,19.833962167621267
2,1, 5, 3, 0,12,50.00,60.00,Wednesday
148,30.28931395597771
596,0.9131743946804375
597,22.610035778437834
2,1, 5, 3, 0,13, 0.00,10.00,Wednesday
148,30.630876099022087
596,1.016702368349455
597,26.828182505841853
2,1, 5, 3, 0,13,10.00,20.00,Wednesday
148,30.689191163815708
596,1.0462891070186927
597,28.108762082213887
2,1, 5, 3, 0,13,20.00,30.00,Wednesday
148,30.692658565432319
596,1.067717216818176
597,29.05610166484192
2,1, 5, 3, 0,13,30.00,40.00,Wednesday
148,30.815107595640268
596,1.0962141515746369
597,30.34108421352643
2,1, 5, 3, 0,13,40.00,50.00,Wednesday
148,30.939211323045435
596,1.1186395893581487
597,31.37186998203866
2,1, 5, 3, 0,13,50.00,60.00,Wednesday
148,31.007689406610419
596,1.1412236246746959
597,32.426800450763028
2,1, 5, 3, 0,14, 0.00,10.00,Wednesday
148,31.062208163533936
596,1.1827482747788297
597,34.40870130463573
2,1, 5, 3, 0,14,10.00,20.00,Wednesday
148,31.294507526622206
596,1.2699534230456045
597,38.733202476793788
2,1, 5, 3, 0,14,20.00,30.00,Wednesday
148,31.399414625487514
596,1.3124045025887235
597,40.90821559909654
2,1, 5, 3, 0,14,30.00,40.00,Wednesday
148,31.422058257556797
596,1.3319014941357344
597,41.920441308145758
2,1, 5, 3, 0,14,40.00,50.00,Wednesday
148,31.92055525937228
596,1.4571163102001672
597,48.57710786009465
2,1, 5, 3, 0,14,50.00,60.00,Wednesday
148,32.456071503855188
596,1.5941304056493027
597,56.02581658842016
2,1, 5, 3, 0,15, 0.00,10.00,Wednesday
148,31.84667785138368
596,1.4428407501030505
597,47.80738148680587
2,1, 5, 3, 0,15,10.00,20.00,Wednesday
148,31.74125473874127
596,1.4395654228538118
597,47.63108300000436
2,1, 5, 3, 0,15,20.00,30.00,Wednesday
148,32.12789000323026
596,1.549474011226733
597,53.59280177927623
2,1, 5, 3, 0,15,30.00,40.00,Wednesday
148,32.22856441023531
596,1.5971369253649795
597,56.18948350117324
2,1, 5, 3, 0,15,40.00,50.00,Wednesday
148,32.33709863613478
596,1.6203743908305977
597,57.453177450320648
2,1, 5, 3, 0,15,50.00,60.00,Wednesday
148,32.47013968455485
596,1.667651487748082
597,60.01307941955077
2,1, 5, 3, 0,16, 0.00,10.00,Wednesday
148,32.57469688853958
596,1.713871347517448
597,62.49296276662458
2,1, 5, 3, 0,16,10.00,20.00,Wednesday
148,32.704980538358018
596,1.7447809969813435
597,64.13390499973466
2,1, 5, 3, 0,16,20.00,30.00,Wednesday
148,32.66556826406857
596,1.7310433058326336
597,63.406571164639057
2,1, 5, 3, 0,16,30.00,40.00,Wednesday
148,32.62491132311709
596,1.7332112413530494
597,63.52156945559396
2,1, 5, 3, 0,16,40.00,50.00,Wednesday
148,32.90799449860409
596,1.7721081150832299
597,65.57024444091327
2,1, 5, 3, 0,16,50.00,60.00,Wednesday
148,32.60789107812164
596,1.6869713631686852
597,61.05298321336065
2,1, 5, 3, 0,17, 0.00,10.00,Wednesday
148,32.45067176957254
596,1.6551823691737738
597,59.33978078938963
2,1, 5, 3, 0,17,10.00,20.00,Wednesday
148,32.062449957308547
596,1.551823883930844
597,53.72085206915456
2,1, 5, 3, 0,17,20.00,30.00,Wednesday
148,31.342579342875319
596,1.3554188868027566
597,43.15145674284065
2,1, 5, 3, 0,17,30.00,40.00,Wednesday
148,31.34844158866649
596,1.3428322509654403
597,42.49129507217763
2,1, 5, 3, 0,17,40.00,50.00,Wednesday
148,31.28916638525953
596,1.326481029151859
597,41.63824015557753
2,1, 5, 3, 0,17,50.00,60.00,Wednesday
148,31.08776618737896
596,1.292025380418422
597,39.8589147184935
2,1, 5, 3, 0,18, 0.00,10.00,Wednesday
148,30.690701291678658
596,1.2158733035665322
597,36.02677396144564
2,1, 5, 3, 0,18,10.00,20.00,Wednesday
148,30.63230979058359
596,1.2114558973265322
597,35.809178225495717
2,1, 5, 3, 0,18,20.00,30.00,Wednesday
148,30.760490680962353
596,1.2513285989670533
597,37.79253148019321
2,1, 5, 3, 0,18,30.00,40.00,Wednesday
148,30.738703295067795
596,1.253554896196302
597,37.90451316624203
2,1, 5, 3, 0,18,40.00,50.00,Wednesday
148,30.885715935326965
596,1.2898955621111979
597,39.74979132819364
2,1, 5, 3, 0,18,50.00,60.00,Wednesday
148,31.181493600068654
596,1.3607139001615832
597,43.43004724448528
2,1, 5, 3, 0,19, 0.00,10.00,Wednesday
148,29.608339653915
596,0.3403103879446205
597,7.409001555220144
2,1, 5, 3, 0,19,10.00,20.00,Wednesday
148,29.417366689167744
596,0.2587208395081257
597,6.3896266902173128
2,1, 5, 3, 0,19,20.00,30.00,Wednesday
148,29.323256036844179
596,0.21391908179947889
597,5.949180137065753
2,1, 5, 3, 0,19,30.00,40.00,Wednesday
148,29.047657297066789
596,0.1449689091627963
597,5.435447238292994
2,1, 5, 3, 0,19,40.00,50.00,Wednesday
148,28.715359684016855
596,0.05790732986144354
597,5.069424572450757
2,1, 5, 3, 0,19,50.00,60.00,Wednesday
148,28.581650738695836
596,0.00022002637156540833
597,5.0000010021444158
2,1, 5, 3, 0,20, 0.00,10.00,Wednesday
148,28.571468163003453
596,-0.01695205959595058
597,5.005948827596228
2,1, 5, 3, 0,20,10.00,20.00,Wednesday
148,28.49915604150178
596,-0.04607589060781034
597,5.0439510934319149
2,1, 5, 3, 0,20,20.00,30.00,Wednesday
148,28.19840500353382
596,-0.12950218381725599
597,5.347423348995619
2,1, 5, 3, 0,20,30.00,40.00,Wednesday
148,27.967696496926736
596,-0.19428869552226367
597,5.782701209268268
2,1, 5, 3, 0,20,40.00,50.00,Wednesday
148,27.54840541147097
596,-0.3069685207496591
597,6.958416717490309
2,1, 5, 3, 0,20,50.00,60.00,Wednesday
148,27.396908639084683
596,-0.3714688383897206
597,7.872763893954186
2,1, 5, 3, 0,21, 0.00,10.00,Wednesday
148,27.153426864370386
596,-0.4551295427310195
597,9.323181308075988
2,1, 5, 3, 0,21,10.00,20.00,Wednesday
148,27.064768847985673
596,-0.5080842087708217
597,10.396747240265853
2,1, 5, 3, 0,21,20.00,30.00,Wednesday
148,26.830881427153647
596,-0.598295856458264
597,12.505010469090621
2,1, 5, 3, 0,21,30.00,40.00,Wednesday
148,26.458777427001345
596,-0.7265847019790869
597,16.110791772301739
2,1, 5, 3, 0,21,40.00,50.00,Wednesday
148,26.675610027146676
596,-0.6756694658561334
597,14.594467153921287
2,1, 5, 3, 0,21,50.00,60.00,Wednesday
148,26.48633816010116
596,-0.7516744477364986
597,16.899054911572564
2,1, 5, 3, 0,22, 0.00,10.00,Wednesday
148,26.54920974227047
596,-0.745706827074266
597,16.709117834530958
2,1, 5, 3, 0,22,10.00,20.00,Wednesday
148,26.47099801508817
596,-0.7747955540304684
597,17.64933402924946
2,1, 5, 3, 0,22,20.00,30.00,Wednesday
148,26.073265003765849
596,-0.9295759745333525
597,23.250219521380204
2,1, 5, 3, 0,22,30.00,40.00,Wednesday
148,25.986522744431239
596,-0.9809685538398325
597,25.32521951999783
2,1, 5, 3, 0,22,40.00,50.00,Wednesday
148,26.135739542390266
596,-0.9480079829714121
597,23.982472234876086
2,1, 5, 3, 0,22,50.00,60.00,Wednesday
148,26.06958396757542
596,-0.9785258559176503
597,25.224259857958246
2,1, 5, 3, 0,23, 0.00,10.00,Wednesday
148,26.30664177138363
596,-0.9355868707915112
597,23.487532253474087
2,1, 5, 3, 0,23,10.00,20.00,Wednesday
148,26.281339832514843
596,-0.9499159416372691
597,24.059038868328828
2,1, 5, 3, 0,23,20.00,30.00,Wednesday
148,26.22346203762688
596,-0.9775993618524767
597,25.186026962449988
2,1, 5, 3, 0,23,30.00,40.00,Wednesday
148,26.370604734373928
596,-0.9584099703230679
597,24.4016442176287
2,1, 5, 3, 0,23,40.00,50.00,Wednesday
148,26.386961959099
596,-0.968405825370558
597,24.808445482834146
2,1, 5, 3, 0,23,50.00,60.00,Wednesday
148,26.332860142580544
596,-0.9969941578507658
597,25.993257910342679
2,1, 5, 3, 0,24, 0.00,10.00,Wednesday
148,26.41040456602761
596,-0.988939899163908
597,25.656281714232834
2,1, 5, 3, 0,24,10.00,20.00,Wednesday
148,26.466077572187918
596,-0.9885354155799392
597,25.639424173917378
2,1, 5, 3, 0,24,20.00,30.00,Wednesday
148,26.31072850775646
596,-1.0421250434242633
597,27.926589488132949
2,1, 5, 3, 0,24,30.00,40.00,Wednesday
148,26.263605520102595
596,-1.0666998039381637
597,29.010750698053998
2,1, 5, 3, 0,24,40.00,50.00,Wednesday
148,26.137858046884394
596,-1.1183937735774057
597,31.36047966234389
2,1, 5, 3, 0,24,50.00,60.00,Wednesday
148,26.127776478005225
596,-1.1334039830482695
597,32.05965466738746
2,2, 5, 4, 0, 1, 0.00,10.00,Thursday
148,26.40122021605474
596,-1.0672666190546343
597,29.036011836530933
2,2, 5, 4, 0, 1,10.00,20.00,Thursday
148,26.521316879158545
596,-1.0433830127047637
597,27.981557594112659
2,2, 5, 4, 0, 1,20.00,30.00,Thursday
148,26.26799377325332
596,-1.1236588781506137
597,31.604885119248637
2,2, 5, 4, 0, 1,30.00,40.00,Thursday
148,25.963809188149598
596,-1.2245558566613813
597,36.45604757689027
2,2, 5, 4, 0, 1,40.00,50.00,Thursday
148,25.961152925256234
596,-1.2372873801262308
597,37.089226585464178
2,2, 5, 4, 0, 1,50.00,60.00,Thursday
148,26.07077633542416
596,-1.2171923017022009
597,36.091851927678309
2,2, 5, 4, 0, 2, 0.00,10.00,Thursday
148,26.26775363234214
596,-1.1717984395533128
597,33.88092864098974
2,2, 5, 4, 0, 2,10.00,20.00,Thursday
148,26.207312270290918
596,-1.1987868749950397
597,35.188185725213447
2,2, 5, 4, 0, 2,20.00,30.00,Thursday
148,26.197473312965447
596,-1.209063049964186
597,35.691538886412207
2,2, 5, 4, 0, 2,30.00,40.00,Thursday
148,26.083921348224277
596,-1.2520682806866857
597,37.829723034817359
2,2, 5, 4, 0, 2,40.00,50.00,Thursday
148,25.945735149078108
596,-1.302435508202503
597,40.39377093275543
2,2, 5, 4, 0, 2,50.00,60.00,Thursday
148,25.87658233403644
596,-1.335897028565662
597,42.128834387200267
2,2, 5, 4, 0, 3, 0.00,10.00,Thursday
148,25.969340596339874
596,-1.3233751395390939
597,41.47681026654585
2,2, 5, 4, 0, 3,10.00,20.00,Thursday
148,25.750440504510228
596,-1.4007144994003873
597,45.54989124164455
2,2, 5, 4, 0, 3,20.00,30.00,Thursday
148,25.755166768750415
596,-1.4156269063108132
597,46.34640700108277
2,2, 5, 4, 0, 3,30.00,40.00,Thursday
148,25.40895623744248
596,-1.5281744744670978
597,52.4325602571386
2,2, 5, 4, 0, 3,40.00,50.00,Thursday
148,25.22415534378771
596,-1.595776691272602
597,56.11543982379571
2,2, 5, 4, 0, 3,50.00,60.00,Thursday
148,25.345710084008837
596,-1.5785793471248933
597,55.17884508613223
2,2, 5, 4, 0, 4, 0.00,10.00,Thursday
148,25.303102648315816
596,-1.6054622055454593
597,56.64251286380206
2,2, 5, 4, 0, 4,10.00,20.00,Thursday
148,25.153630625018118
596,-1.6599255940686316
597,59.59608353230819
2,2, 5, 4, 0, 4,20.00,30.00,Thursday
148,25.0002143307727
596,-1.7205151807157362
597,62.84699636662091
2,2, 5, 4, 0, 4,30.00,40.00,Thursday
148,24.836725998577785
596,-1.7842514209064298
597,66.20361783728012
2,2, 5, 4, 0, 4,40.00,50.00,Thursday
148,24.761109069894727
596,-1.8203740077836539
597,68.06780316261485
2,2, 5, 4, 0, 4,50.00,60.00,Thursday
148,24.702374624797338
596,-1.8438553439038397
597,69.26204705650781
2,2, 5, 4, 0, 5, 0.00,10.00,Thursday
148,24.62149611441568
596,-1.8870898574573983
597,71.42017546693553
2,2, 5, 4, 0, 5,10.00,20.00,Thursday
148,24.488043825609297
596,-1.9439787373279054
597,74.16911015077824
2,2, 5, 4, 0, 5,20.00,30.00,Thursday
148,24.224479088002558
596,-2.0338346135651488
597,78.26720639824466
2,2, 5, 4, 0, 5,30.00,40.00,Thursday
148,24.155962588763836
596,-2.068775130235683
597,79.7706503654208
2,2, 5, 4, 0, 5,40.00,50.00,Thursday
148,24.16040024815277
596,-2.0858877549925785
597,80.48725858385014
2,2, 5, 4, 0, 5,50.00,60.00,Thursday
148,24.079507457700339
596,-2.1278438339536529
597,82.18726417452177
2,2, 5, 4, 0, 6, 0.00,10.00,Thursday
148,24.25844002743015
596,-2.0819625959458367
597,80.32405800569754
2,2, 5, 4, 0, 6,10.00,20.00,Thursday
148,23.59658774034351
596,-2.3018395227970669
597,88.3182353673076
2,2, 5, 4, 0, 6,20.00,30.00,Thursday
148,23.33432437532914
596,-2.403824831179455
597,91.19591503285489
2,2, 5, 4, 0, 6,30.00,40.00,Thursday
148,22.9872065008583
596,-2.53361166719034
597,94.1085659099954
2,2, 5, 4, 0, 6,40.00,50.00,Thursday
148,22.77230720899802
596,-2.623628315765407
597,95.67126569709262
2,2, 5, 4, 0, 6,50.00,60.00,Thursday
148,22.95192873229771
596,-2.574714075725085
597,94.8659930387698
2,2, 5, 4, 0, 7, 0.00,10.00,Thursday
148,23.382373890114527
596,-2.447501446563829
597,92.26749417244406
2,2, 5, 4, 0, 7,10.00,20.00,Thursday
148,23.620092248443418
596,-2.3744105969413868
597,90.42035058757979
2,2, 5, 4, 0, 7,20.00,30.00,Thursday
148,23.32289398413043
596,-2.4707257637552204
597,92.79898150964296
2,2, 5, 4, 0, 7,30.00,40.00,Thursday
148,23.601286359844936
596,-2.400985903640165
597,91.12296584532459
2,2, 5, 4, 0, 7,40.00,50.00,Thursday
148,23.842410510963455
596,-2.3234055040220507
597,88.97110762978365
2,2, 5, 4, 0, 7,50.00,60.00,Thursday
148,23.98472956701168
596,-2.27963442004455
597,87.62106293292874
2,2, 5, 4, 0, 8, 0.00,10.00,Thursday
148,23.9998436818995
596,-2.273157272924634
597,87.41293543044549
2,2, 5, 4, 0, 8,10.00,20.00,Thursday
148,23.82998943258316
596,-2.319647223046084
597,88.85905047433806
2,2, 5, 4, 0, 8,20.00,30.00,Thursday
148,23.67454131825729
596,-2.3638860335809097
597,90.13219071535245
2,2, 5, 4, 0, 8,30.00,40.00,Thursday
148,23.77989643146632
596,-2.3192462438219185
597,88.8470520446413
2,2, 5, 4, 0, 8,40.00,50.00,Thursday
148,24.011466585939897
596,-2.229464669011083
597,85.9529823565014
2,2, 5, 4, 0, 8,50.00,60.00,Thursday
148,24.43123395349332
596,-2.0893093368390875
597,80.62894897193614
2,2, 5, 4, 0, 9, 0.00,10.00,Thursday
148,24.800077412990789
596,-1.9630418796509195
597,75.06479018980129
2,2, 5, 4, 0, 9,10.00,20.00,Thursday
148,25.02602175169571
596,-1.8950937704102505
597,71.81345542854013
2,2, 5, 4, 0, 9,20.00,30.00,Thursday
148,25.25583471944252
596,-1.7995231241219254
597,66.99552187989399
2,2, 5, 4, 0, 9,30.00,40.00,Thursday
148,25.493345011119588
596,-1.707510459992305
597,62.15337846090143
2,2, 5, 4, 0, 9,40.00,50.00,Thursday
148,25.689548351664479
596,-1.6236403269740139
597,57.630559355873639
2,2, 5, 4, 0, 9,50.00,60.00,Thursday
148,25.79299684592706
596,-1.5883986270501565
597,55.71371406729661
2,2, 5, 4, 0,10, 0.00,10.00,Thursday
148,27.39380233724577
596,-0.003120583888023355
597,5.000201582463916
2,2, 5, 4, 0,10,10.00,20.00,Thursday
148,27.47787898951686
596,0.04200283990979294
597,5.036523512164692
2,2, 5, 4, 0,10,20.00,30.00,Thursday
148,27.752605303807039
596,0.11488402502696561
597,5.273373009733703
2,2, 5, 4, 0,10,30.00,40.00,Thursday
148,27.979824974247785
596,0.16851514113954753
597,5.588577252573515
2,2, 5, 4, 0,10,40.00,50.00,Thursday
148,28.125442812627616
596,0.21665773682685766
597,5.973687836588553
2,2, 5, 4, 0,10,50.00,60.00,Thursday
148,28.36982790381564
596,0.2867683316967717
597,6.708323199686717
2,2, 5, 4, 0,11, 0.00,10.00,Thursday
148,28.546706711557787
596,0.3428104545179552
597,7.444688639062804
2,2, 5, 4, 0,11,10.00,20.00,Thursday
148,28.599918082538499
596,0.3696622740395935
597,7.844745951403738
2,2, 5, 4, 0,11,20.00,30.00,Thursday
148,28.74733085808928
596,0.4152172846242826
597,8.593817043429397
2,2, 5, 4, 0,11,30.00,40.00,Thursday
148,28.895198776949895
596,0.467325208067874
597,9.559709311515548
2,2, 5, 4, 0,11,40.00,50.00,Thursday
148,28.97308549181279
596,0.4916090462396871
597,10.04977281131815
2,2, 5, 4, 0,11,50.00,60.00,Thursday
148,29.221263084970514
596,0.5682503876196478
597,11.763654467440106
2,2, 5, 4, 0,12, 0.00,10.00,Thursday
148,29.408845151311686
596,0.6355146110337618
597,13.477685948584949
2,2, 5, 4, 0,12,10.00,20.00,Thursday
148,29.714455535473925
596,0.7172126657676753
597,15.823283305594217
2,2, 5, 4, 0,12,20.00,30.00,Thursday
148,29.944395917568629
596,0.7930175760288148
597,18.256690081301984
2,2, 5, 4, 0,12,30.00,40.00,Thursday
148,30.122465788477514
596,0.8465879868111956
597,20.123475780315404
2,2, 5, 4, 0,12,40.00,50.00,Thursday
148,30.212568803684925
596,0.8818585058351822
597,21.417938780735498
2,2, 5, 4, 0,12,50.00,60.00,Thursday
148,30.255339615774724
596,0.8999176394541003
597,22.10052510102227
2,2, 5, 4, 0,13, 0.00,10.00,Thursday
148,30.403356278822029
596,0.950662756219433
597,24.089047724585855
2,2, 5, 4, 0,13,10.00,20.00,Thursday
148,30.6751138103168
596,1.045377369458783
597,28.068820812210448
2,2, 5, 4, 0,13,20.00,30.00,Thursday
148,30.902125378019425
596,1.108794735071349
597,30.917265669636565
2,2, 5, 4, 0,13,30.00,40.00,Thursday
148,30.988997927621154
596,1.140407653928524
597,32.38839718078262
2,2, 5, 4, 0,13,40.00,50.00,Thursday
148,31.10669378831335
596,1.1741721756840816
597,33.99503323952878
2,2, 5, 4, 0,13,50.00,60.00,Thursday
148,31.283621946111468
596,1.2279061346106522
597,36.62224251897363
2,2, 5, 4, 0,14, 0.00,10.00,Thursday
148,31.41271987873296
596,1.277917451417865
597,39.13804880993204
2,2, 5, 4, 0,14,10.00,20.00,Thursday
148,31.566665671136368
596,1.3153437887359363
597,41.06030604529592
2,2, 5, 4, 0,14,20.00,30.00,Thursday
148,31.59860339497469
596,1.3273216952479679
597,41.681968069281548
2,2, 5, 4, 0,14,30.00,40.00,Thursday
148,31.568982757885864
596,1.329308105005455
597,41.78534979394539
2,2, 5, 4, 0,14,40.00,50.00,Thursday
148,31.683165535412145
596,1.3466540439540445
597,42.691431915716048
2,2, 5, 4, 0,14,50.00,60.00,Thursday
148,31.81529614541592
596,1.416555987357004
597,46.39613251031427
2,2, 5, 4, 0,15, 0.00,10.00,Thursday
148,32.08636453511224
596,1.4926172489752383
597,50.49925389168216
2,2, 5, 4, 0,15,10.00,20.00,Thursday
148,31.950621211052654
596,1.467695683549352
597,49.148822227381689
2,2, 5, 4, 0,15,20.00,30.00,Thursday
148,32.002858294919757
596,1.469606333481859
597,49.25218161556038
2,2, 5, 4, 0,15,30.00,40.00,Thursday
148,31.977871469510207
596,1.4576099248932362
597,48.60375982697802
2,2, 5, 4, 0,15,40.00,50.00,Thursday
148,31.98133109082808
596,1.475424817775533
597,49.56713018888093
2,2, 5, 4, 0,15,50.00,60.00,Thursday
148,32.076341540111929
596,1.514594449409463
597,51.69349789378451
2,2, 5, 4, 0,16, 0.00,10.00,Thursday
148,32.425177133237649
596,1.6137970085985565
597,57.095755481347449
2,2, 5, 4, 0,16,10.00,20.00,Thursday
148,32.712859177630338
596,1.70542173721524
597,62.04173964465515
2,2, 5, 4, 0,16,20.00,30.00,Thursday
148,32.77760203970327
596,1.730489687056725
597,63.37719166214415
2,2, 5, 4, 0,16,30.00,40.00,Thursday
148,32.881012384030537
596,1.7551506012527143
597,64.68065246363412
2,2, 5, 4, 0,16,40.00,50.00,Thursday
148,32.879493081131418
596,1.7449344875842697
597,64.14201250560312
2,2, 5, 4, 0,16,50.00,60.00,Thursday
148,32.70356538467161
596,1.6988182531614236
597,61.6883869902394
2,2, 5, 4, 0,17, 0.00,10.00,Thursday
148,32.74403810337882
596,1.7282984613730935
597,63.26085702138469
2,2, 5, 4, 0,17,10.00,20.00,Thursday
148,33.05618428139241
596,1.8021251095783122
597,67.12990829160217
2,2, 5, 4, 0,17,20.00,30.00,Thursday
148,32.98101635734395
596,1.7890823226692104
597,66.4546938574938
2,2, 5, 4, 0,17,30.00,40.00,Thursday
148,32.96208401099953
596,1.7958246027996097
597,66.80422821437091
2,2, 5, 4, 0,17,40.00,50.00,Thursday
148,32.80621729475429
596,1.7556517073034126
597,64.70702221722374
2,2, 5, 4, 0,17,50.00,60.00,Thursday
148,32.72307069172272
596,1.7224809430573239
597,62.951614314601837
2,2, 5, 4, 0,18, 0.00,10.00,Thursday
148,32.6145703350089
596,1.694666338994572
597,61.465910614843277
2,2, 5, 4, 0,18,10.00,20.00,Thursday
148,32.619128693180169
596,1.6986026008971836
597,61.67683721421473
2,2, 5, 4, 0,18,20.00,30.00,Thursday
148,32.67256503790256
596,1.7212613705488032
597,62.886715865558837
2,2, 5, 4, 0,18,30.00,40.00,Thursday
148,32.7496907093343
596,1.7483635362818467
597,64.3230250716655
2,2, 5, 4, 0,18,40.00,50.00,Thursday
148,32.84314914119779
596,1.7752186905288677
597,65.73278707223185
2,2, 5, 4, 0,18,50.00,60.00,Thursday
148,32.74304416071948
596,1.7425090560986135
597,64.01384908250164
2,2, 5, 4, 0,19, 0.00,10.00,Thursday
148,31.397688081431224
596,0.8728230866647879
597,21.08143647569422
2,2, 5, 4, 0,19,10.00,20.00,Thursday
148,30.954045541757563
596,0.7416968033886274
597,16.582344537456579
2,2, 5, 4, 0,19,20.00,30.00,Thursday
148,30.886238477030724
596,0.7210304549698229
597,15.939946264709832
2,2, 5, 4, 0,19,30.00,40.00,Thursday
148,30.62045811835538
596,0.6451627922883824
597,13.739641024400783
2,2, 5, 4, 0,19,40.00,50.00,Thursday
148,30.582909172258778
596,0.621798319235586
597,13.112229664228267
2,2, 5, 4, 0,19,50.00,60.00,Thursday
148,30.489923764844268
596,0.573918275324292
597,11.900509000616055
2,2, 5, 4, 0,20, 0.00,10.00,Thursday
148,30.33108765301766
596,0.5219178893577665
597,10.69715448611825
2,2, 5, 4, 0,20,10.00,20.00,Thursday
148,30.093071368013516
596,0.45085413515574948
597,9.241777972498241
2,2, 5, 4, 0,20,20.00,30.00,Thursday
148,29.87070259097031
596,0.38362528366135847
597,8.064918144432099
2,2, 5, 4, 0,20,30.00,40.00,Thursday
148,29.716668888370824
596,0.33765105578884116
597,7.371332474506829
2,2, 5, 4, 0,20,40.00,50.00,Thursday
148,29.584856895988584
596,0.2985268512921297
597,6.851804894581889
2,2, 5, 4, 0,20,50.00,60.00,Thursday
148,29.497809037504174
596,0.2731633010381224
597,6.54959223109006
2,2, 5, 4, 0,21, 0.00,10.00,Thursday
148,29.415057779382037
596,0.24420786591338174
597,6.237721162216246
2,2, 5, 4, 0,21,10.00,20.00,Thursday
148,29.331721421477579
596,0.2161988738811759
597,5.969559651501967
2,2, 5, 4, 0,21,20.00,30.00,Thursday
148,29.226187153126494
596,0.17745099689982186
597,5.652740696430982
2,2, 5, 4, 0,21,30.00,40.00,Thursday
148,29.183149531185128
596,0.15868417572674946
597,5.521833649858124
2,2, 5, 4, 0,21,40.00,50.00,Thursday
148,29.120778403005553
596,0.13295162302190803
597,5.36619246992943
2,2, 5, 4, 0,21,50.00,60.00,Thursday
148,28.986214592220717
596,0.08837920417193186
597,5.16174568707892
2,2, 5, 4, 0,22, 0.00,10.00,Thursday
148,28.74130344910886
596,0.011816086605312059
597,5.002890219923415
2,2, 5, 4, 0,22,10.00,20.00,Thursday
148,28.642375082778046
596,-0.023968680344451659
597,5.011892695197872
2,2, 5, 4, 0,22,20.00,30.00,Thursday
148,28.479050339083359
596,-0.08139456003435537
597,5.137183019050212
2,2, 5, 4, 0,22,30.00,40.00,Thursday
148,28.47736061305414
596,-0.08319165965369266
597,5.143309472739972
2,2, 5, 4, 0,22,40.00,50.00,Thursday
148,28.4619748878324
596,-0.1049781734428626
597,5.228240382312634
2,2, 5, 4, 0,22,50.00,60.00,Thursday