Program Version,EnergyPlus, Version 9.5.0-de239b2e5f, YMD=2021.12.08 22:29
1,5,Environment Title[],Latitude[deg],Longitude[deg],Time Zone[],Elevation[m]
2,8,Day of Simulation[],Month[],Day of Month[],DST Indicator[1=yes 0=no],Hour[],StartMinute[],EndMinute[],DayType
3,5,Cumulative Day of Simulation[],Month[],Day of Month[],DST Indicator[1=yes 0=no],DayType  ! When Daily Report Variables Requested
4,2,Cumulative Days of Simulation[],Month[]  ! When Monthly Report Variables Requested
5,1,Cumulative Days of Simulation[] ! When Run Period Report Variables Requested
6,1,Calendar Year of Simulation[] ! When Annual Report Variables Requested
148,1,THERMAL ZONE: JORGE,Zone Mean Air Temperature [C] !TimeStep
596,1,JORGE,Zone Thermal Comfort Fanger Model PMV [] !TimeStep
597,1,JORGE,Zone Thermal Comfort Fanger Model PPD [%] !TimeStep
End of Data Dictionary
1,RUN PERIOD 1,  18.85, -99.14,  -6.00,1280.00
2,1, 5, 3, 0, 1, 0.00,10.00,Wednesday
148,25.502916023510477
596,-32.89983632089383
597,100.0
2,1, 5, 3, 0, 1,10.00,20.00,Wednesday
148,25.53637856462499
596,-32.939477151943659
597,100.0
2,1, 5, 3, 0, 1,20.00,30.00,Wednesday
148,25.701747647267028
596,-32.6759632103717
597,100.0
2,1, 5, 3, 0, 1,30.00,40.00,Wednesday
148,25.666336358578375
596,-32.80708973896727
597,100.0
2,1, 5, 3, 0, 1,40.00,50.00,Wednesday
148,25.45284383675156
596,-33.26447586044402
597,100.0
2,1, 5, 3, 0, 1,50.00,60.00,Wednesday
148,25.17732186880076
596,-33.84315248260593
597,100.0
2,1, 5, 3, 0, 2, 0.00,10.00,Wednesday
148,24.952823049628284
596,-34.3625629768488
597,100.0
2,1, 5, 3, 0, 2,10.00,20.00,Wednesday
148,24.741858859106224
596,-34.835193254632688
597,100.0
2,1, 5, 3, 0, 2,20.00,30.00,Wednesday
148,24.41250142472677
596,-35.54225986862166
597,100.0
2,1, 5, 3, 0, 2,30.00,40.00,Wednesday
148,24.250819292865793
596,-35.93805736120122
597,100.0
2,1, 5, 3, 0, 2,40.00,50.00,Wednesday
148,24.275826857641556
596,-35.97711152111594
597,100.0
2,1, 5, 3, 0, 2,50.00,60.00,Wednesday
148,24.38971816473117
596,-35.85187727863281
597,100.0
2,1, 5, 3, 0, 3, 0.00,10.00,Wednesday
148,24.45106741979332
596,-35.81613561068001
597,100.0
2,1, 5, 3, 0, 3,10.00,20.00,Wednesday
148,24.745630889505894
596,-35.360925689268039
597,100.0
2,1, 5, 3, 0, 3,20.00,30.00,Wednesday
148,24.99890147275484
596,-34.95141613539887
597,100.0
2,1, 5, 3, 0, 3,30.00,40.00,Wednesday
148,24.875951995337748
596,-35.241013076183119
597,100.0
2,1, 5, 3, 0, 3,40.00,50.00,Wednesday
148,24.796608334603513
596,-35.44531557041036
597,100.0
2,1, 5, 3, 0, 3,50.00,60.00,Wednesday
148,24.74518859097015
596,-35.62499465953674
597,100.0
2,1, 5, 3, 0, 4, 0.00,10.00,Wednesday
148,24.65397206826687
596,-35.86314244742287
597,100.0
2,1, 5, 3, 0, 4,10.00,20.00,Wednesday
148,24.45843668622212
596,-36.27676773558201
597,100.0
2,1, 5, 3, 0, 4,20.00,30.00,Wednesday
148,24.451302952978329
596,-36.402594781881187
597,100.0
2,1, 5, 3, 0, 4,30.00,40.00,Wednesday
148,23.957077649306095
596,-37.399145368903088
597,100.0
2,1, 5, 3, 0, 4,40.00,50.00,Wednesday
148,23.39793319046943
596,-38.60930962103408
597,100.0
2,1, 5, 3, 0, 4,50.00,60.00,Wednesday
148,23.273529911483189
596,-38.964525355317828
597,100.0
2,1, 5, 3, 0, 5, 0.00,10.00,Wednesday
148,23.190896797122865
596,-39.2149754252791
597,100.0
2,1, 5, 3, 0, 5,10.00,20.00,Wednesday
148,23.540357278879204
596,-38.663724183735677
597,100.0
2,1, 5, 3, 0, 5,20.00,30.00,Wednesday
148,23.81291117476618
596,-38.17337587839789
597,100.0
2,1, 5, 3, 0, 5,30.00,40.00,Wednesday
148,24.041067238529096
596,-37.809089241335467
597,100.0
2,1, 5, 3, 0, 5,40.00,50.00,Wednesday
148,23.881990598255919
596,-38.11165081980853
597,100.0
2,1, 5, 3, 0, 5,50.00,60.00,Wednesday
148,23.454144401094309
596,-39.005969410241508
597,100.0
2,1, 5, 3, 0, 6, 0.00,10.00,Wednesday
148,23.123435472112925
596,-39.70521089803938
597,100.0
2,1, 5, 3, 0, 6,10.00,20.00,Wednesday
148,22.867116634910134
596,-40.360574060210847
597,100.0
2,1, 5, 3, 0, 6,20.00,30.00,Wednesday
148,22.870473614743675
596,-40.43456955887276
597,100.0
2,1, 5, 3, 0, 6,30.00,40.00,Wednesday
148,22.53974116046621
596,-41.196123163466847
597,100.0
2,1, 5, 3, 0, 6,40.00,50.00,Wednesday
148,22.310537718308159
596,-41.72749676350845
597,100.0
2,1, 5, 3, 0, 6,50.00,60.00,Wednesday
148,22.19264239549087
596,-42.04984403443556
597,100.0
2,1, 5, 3, 0, 7, 0.00,10.00,Wednesday
148,22.33978285476649
596,-41.83983325277867
597,100.0
2,1, 5, 3, 0, 7,10.00,20.00,Wednesday
148,22.630668486103333
596,-41.31733185816237
597,100.0
2,1, 5, 3, 0, 7,20.00,30.00,Wednesday
148,22.895192209989064
596,-40.8733696233098
597,100.0
2,1, 5, 3, 0, 7,30.00,40.00,Wednesday
148,22.18002002746278
596,-42.29514905357979
597,100.0
2,1, 5, 3, 0, 7,40.00,50.00,Wednesday
148,21.948672192584327
596,-42.83080542576277
597,100.0
2,1, 5, 3, 0, 7,50.00,60.00,Wednesday
148,22.782778804423857
596,-41.24595388177672
597,100.0
2,1, 5, 3, 0, 8, 0.00,10.00,Wednesday
148,23.01307509340654
596,-40.713659462413577
597,100.0
2,1, 5, 3, 0, 8,10.00,20.00,Wednesday
148,22.548080309648456
596,-41.61184575358296
597,100.0
2,1, 5, 3, 0, 8,20.00,30.00,Wednesday
148,22.68161352473266
596,-41.32354821158811
597,100.0
2,1, 5, 3, 0, 8,30.00,40.00,Wednesday
148,22.94241296284258
596,-40.75427388984265
597,100.0
2,1, 5, 3, 0, 8,40.00,50.00,Wednesday
148,23.227450776882895
596,-40.1039217187727
597,100.0
2,1, 5, 3, 0, 8,50.00,60.00,Wednesday
148,23.83006455919646
596,-38.85299604991066
597,100.0
2,1, 5, 3, 0, 9, 0.00,10.00,Wednesday
148,24.30453755323809
596,-37.76260134001396
597,100.0
2,1, 5, 3, 0, 9,10.00,20.00,Wednesday
148,24.527279376164409
596,-37.26879777743872
597,100.0
2,1, 5, 3, 0, 9,20.00,30.00,Wednesday
148,24.79231851995492
596,-36.71489214224025
597,100.0
2,1, 5, 3, 0, 9,30.00,40.00,Wednesday
148,25.03648936608392
596,-36.17070479060151
597,100.0
2,1, 5, 3, 0, 9,40.00,50.00,Wednesday
148,25.221664134508218
596,-35.68240700787221
597,100.0
2,1, 5, 3, 0, 9,50.00,60.00,Wednesday
148,25.367546027862585
596,-35.28934163106743
597,100.0
2,1, 5, 3, 0,10, 0.00,10.00,Wednesday
148,27.23417206981932
596,-0.04164569818346434
597,5.035905000433132
2,1, 5, 3, 0,10,10.00,20.00,Wednesday
148,27.463047505813376
596,0.048041312254669097
597,5.047781032513669
2,1, 5, 3, 0,10,20.00,30.00,Wednesday
148,27.78897885183391
596,0.12803110952018213
597,5.3395694329322229
2,1, 5, 3, 0,10,30.00,40.00,Wednesday
148,28.286601906067064
596,0.2559505569557197
597,6.359946520532205
2,1, 5, 3, 0,10,40.00,50.00,Wednesday
148,28.347636888056227
596,0.2928859997749784
597,6.782244346060622
2,1, 5, 3, 0,10,50.00,60.00,Wednesday
148,28.256410748073575
596,0.2821397872930879
597,6.653445316677477
2,1, 5, 3, 0,11, 0.00,10.00,Wednesday
148,28.03383885350169
596,0.23434195981391696
597,6.1395089220248029
2,1, 5, 3, 0,11,10.00,20.00,Wednesday
148,28.39099459967513
596,0.3219351691131445
597,7.1548478421200489
2,1, 5, 3, 0,11,20.00,30.00,Wednesday
148,28.832078867925408
596,0.44129225663579177
597,9.06256620872
2,1, 5, 3, 0,11,30.00,40.00,Wednesday
148,28.951635957924287
596,0.4892519736105277
597,10.001090542063679
2,1, 5, 3, 0,11,40.00,50.00,Wednesday
148,28.955200958739803
596,0.5024361898627336
597,10.276476111349084
2,1, 5, 3, 0,11,50.00,60.00,Wednesday
148,29.106584117633945
596,0.5511908283429915
597,11.36014921895341
2,1, 5, 3, 0,12, 0.00,10.00,Wednesday
148,29.25668157188621
596,0.6073245092226861
597,12.73544267529833
2,1, 5, 3, 0,12,10.00,20.00,Wednesday
148,29.370038322679627
596,0.6372689163409234
597,13.525016292457679
2,1, 5, 3, 0,12,20.00,30.00,Wednesday
148,29.644059681445083
596,0.7235221493836831
597,16.016425195766588
2,1, 5, 3, 0,12,30.00,40.00,Wednesday
148,29.782437096377689
596,0.7656207400580768
597,17.348879367991445
2,1, 5, 3, 0,12,40.00,50.00,Wednesday
148,30.034275329082374
596,0.8382561402704744
597,19.82522535136711
2,1, 5, 3, 0,12,50.00,60.00,Wednesday
148,30.288683198193554
596,0.9129376893846047
597,22.600875921032256
2,1, 5, 3, 0,13, 0.00,10.00,Wednesday
148,30.630266180949943
596,1.0164718147528554
597,26.818330861921227
2,1, 5, 3, 0,13,10.00,20.00,Wednesday
148,30.68847649873455
596,1.04603780495803
597,28.097750065093238
2,1, 5, 3, 0,13,20.00,30.00,Wednesday
148,30.69188693951818
596,1.0674568603568449
597,29.04449283651111
2,1, 5, 3, 0,13,30.00,40.00,Wednesday
148,30.814630318130136
596,1.0960158395848497
597,30.332044777918016
2,1, 5, 3, 0,13,40.00,50.00,Wednesday
148,30.938747524379285
596,1.1184471019479654
597,31.362950558757008
2,1, 5, 3, 0,13,50.00,60.00,Wednesday
148,31.007051468433639
596,1.1409946859407497
597,32.416023404022258
2,1, 5, 3, 0,14, 0.00,10.00,Wednesday
148,31.06153228281636
596,1.1825096873377184
597,34.39716319646571
2,1, 5, 3, 0,14,10.00,20.00,Wednesday
148,31.29392190373316
596,1.2697352399822537
597,38.72213293700749
2,1, 5, 3, 0,14,20.00,30.00,Wednesday
148,31.398818287541265
596,1.3121860197186135
597,40.89691779600439
2,1, 5, 3, 0,14,30.00,40.00,Wednesday
148,31.421428671460935
596,1.3316776151614199
597,41.90877396680838
2,1, 5, 3, 0,14,40.00,50.00,Wednesday
148,31.920082586192913
596,1.4569273428547176
597,48.56690548056437
2,1, 5, 3, 0,14,50.00,60.00,Wednesday
148,32.45567291732078
596,1.5939606822682675
597,56.01657639247457
2,1, 5, 3, 0,15, 0.00,10.00,Wednesday
148,31.795504090414448
596,-23.523482931380177
597,100.0
2,1, 5, 3, 0,15,10.00,20.00,Wednesday
148,31.6497085446446
596,-23.739315115107109
597,100.0
2,1, 5, 3, 0,15,20.00,30.00,Wednesday
148,32.048478664260958
596,-22.535726551529828
597,100.0
2,1, 5, 3, 0,15,30.00,40.00,Wednesday
148,32.14095679638535
596,-22.091491211061176
597,100.0
2,1, 5, 3, 0,15,40.00,50.00,Wednesday
148,32.253238517020808
596,-21.805359630557473
597,100.0
2,1, 5, 3, 0,15,50.00,60.00,Wednesday
148,32.39428871810514
596,-21.30409757885042
597,100.0
2,1, 5, 3, 0,16, 0.00,10.00,Wednesday
148,32.493232431825507
596,-20.863635057559227
597,100.0
2,1, 5, 3, 0,16,10.00,20.00,Wednesday
148,32.628419784850638
596,-20.550203667885474
597,100.0
2,1, 5, 3, 0,16,20.00,30.00,Wednesday
148,32.59851532856446
596,-20.58392279786887
597,100.0
2,1, 5, 3, 0,16,30.00,40.00,Wednesday
148,32.59274486507141
596,0.9611395144274557
597,24.512341032945217
2,1, 5, 3, 0,16,40.00,50.00,Wednesday
148,32.90229586385841
596,1.0731788255898585
597,29.300177510533886
2,1, 5, 3, 0,16,50.00,60.00,Wednesday
148,32.60046661643011
596,0.917691129703389
597,22.785253934009675
2,1, 5, 3, 0,17, 0.00,10.00,Wednesday
148,32.441869538128539
596,1.8121829248404607
597,67.6478419031235
2,1, 5, 3, 0,17,10.00,20.00,Wednesday
148,32.056528780716238
596,1.7296245123838763
597,63.33126815711147
2,1, 5, 3, 0,17,20.00,30.00,Wednesday
148,31.33645989278282
596,1.5661521430283099
597,54.501688691988118
2,1, 5, 3, 0,17,30.00,40.00,Wednesday
148,31.343654324811867
596,1.5570420733171378
597,54.005218780974029
2,1, 5, 3, 0,17,40.00,50.00,Wednesday
148,31.287202160177729
596,1.5453328857580964
597,53.36715692220984
2,1, 5, 3, 0,17,50.00,60.00,Wednesday
148,31.084290591767507
596,1.5167036210225793
597,51.80823771188396
2,1, 5, 3, 0,18, 0.00,10.00,Wednesday
148,30.685722452399888
596,1.4575237976868037
597,48.599109351897009
2,1, 5, 3, 0,18,10.00,20.00,Wednesday
148,30.628937402333649
596,1.4575156290392766
597,48.59866828600796
2,1, 5, 3, 0,18,20.00,30.00,Wednesday
148,30.757672785308615
596,1.4932012150020598
597,50.53095085841715
2,1, 5, 3, 0,18,30.00,40.00,Wednesday
148,30.735323010107125
596,1.4959992203314246
597,50.682853044646538
2,1, 5, 3, 0,18,40.00,50.00,Wednesday
148,30.882264075297639
596,1.5262429935232014
597,52.32740331140383
2,1, 5, 3, 0,18,50.00,60.00,Wednesday
148,31.177878769162505
596,1.585935984211057
597,55.57959163549802
2,1, 5, 3, 0,19, 0.00,10.00,Wednesday
148,29.60521111444318
596,-22.437212508928174
597,100.0
2,1, 5, 3, 0,19,10.00,20.00,Wednesday
148,29.414096481587884
596,-22.90221210170918
597,100.0
2,1, 5, 3, 0,19,20.00,30.00,Wednesday
148,29.319459060406844
596,-23.159816297483979
597,100.0
2,1, 5, 3, 0,19,30.00,40.00,Wednesday
148,29.044251991279919
596,-23.5569689886072
597,100.0
2,1, 5, 3, 0,19,40.00,50.00,Wednesday
148,28.712335406907294
596,-24.113156322612338
597,100.0
2,1, 5, 3, 0,19,50.00,60.00,Wednesday
148,28.578673574747634
596,-24.490361187345444
597,100.0
2,1, 5, 3, 0,20, 0.00,10.00,Wednesday
148,28.56835755634502
596,-24.59556269082513
597,100.0
2,1, 5, 3, 0,20,10.00,20.00,Wednesday
148,28.496049670305344
596,-24.792481560192458
597,100.0
2,1, 5, 3, 0,20,20.00,30.00,Wednesday
148,28.19571450101128
596,-25.375049845027676
597,100.0
2,1, 5, 3, 0,20,30.00,40.00,Wednesday
148,27.965305218206689
596,-25.834853369089463
597,100.0
2,1, 5, 3, 0,20,40.00,50.00,Wednesday
148,27.546717724406308
596,-26.631628793525786
597,100.0
2,1, 5, 3, 0,20,50.00,60.00,Wednesday
148,27.395050838881877
596,-27.05474225068566
597,100.0
2,1, 5, 3, 0,21, 0.00,10.00,Wednesday
148,27.151609880031857
596,-27.612667224613248
597,100.0
2,1, 5, 3, 0,21,10.00,20.00,Wednesday
148,27.063177300590178
596,-27.918176416894995
597,100.0
2,1, 5, 3, 0,21,20.00,30.00,Wednesday
148,26.8296017114199
596,-28.4435101008146
597,100.0
2,1, 5, 3, 0,21,30.00,40.00,Wednesday
148,26.457956528914278
596,-29.19909355502329
597,100.0
2,1, 5, 3, 0,21,40.00,50.00,Wednesday
148,26.67455193484519
596,-28.90012476207662
597,100.0
2,1, 5, 3, 0,21,50.00,60.00,Wednesday
148,26.485381283602409
596,-29.34223901935497
597,100.0
2,1, 5, 3, 0,22, 0.00,10.00,Wednesday
148,26.548248765941176
596,-29.301671272836633
597,100.0
2,1, 5, 3, 0,22,10.00,20.00,Wednesday
148,26.47004345265276
596,-29.48989078711304
597,100.0
2,1, 5, 3, 0,22,20.00,30.00,Wednesday
148,26.07225662113929
596,-30.39137121353921
597,100.0
2,1, 5, 3, 0,22,30.00,40.00,Wednesday
148,25.98545183558082
596,-30.685081555612798
597,100.0
2,1, 5, 3, 0,22,40.00,50.00,Wednesday
148,26.134584402242866
596,-30.48831996123783
597,100.0
2,1, 5, 3, 0,22,50.00,60.00,Wednesday
148,26.06843796281286
596,-30.67555352269131
597,100.0
2,1, 5, 3, 0,23, 0.00,10.00,Wednesday
148,26.305087624264354
596,-30.402068739389873
597,100.0
2,1, 5, 3, 0,23,10.00,20.00,Wednesday
148,26.28014430048996
596,-30.4683342098664
597,100.0
2,1, 5, 3, 0,23,20.00,30.00,Wednesday
148,26.222400466475628
596,-30.63774216937243
597,100.0
2,1, 5, 3, 0,23,30.00,40.00,Wednesday
148,26.369031194465113
596,-30.521956802382559
597,100.0
2,1, 5, 3, 0,23,40.00,50.00,Wednesday
148,26.38521065293833
596,-30.572172195832175
597,100.0
2,1, 5, 3, 0,23,50.00,60.00,Wednesday
148,26.331360992151315
596,-30.727922161433118
597,100.0
2,1, 5, 3, 0,24, 0.00,10.00,Wednesday
148,26.40892213229726
596,-30.667365942425904
597,100.0
2,1, 5, 3, 0,24,10.00,20.00,Wednesday
148,26.464533015385724
596,-30.653714542182767
597,100.0
2,1, 5, 3, 0,24,20.00,30.00,Wednesday
148,26.309358058046028
596,-30.97358057380805
597,100.0
2,1, 5, 3, 0,24,30.00,40.00,Wednesday
148,26.26232125376637
596,-31.116900323819029
597,100.0
2,1, 5, 3, 0,24,40.00,50.00,Wednesday
148,26.136807104590486
596,-31.413659610209863
597,100.0
2,1, 5, 3, 0,24,50.00,60.00,Wednesday
148,26.126822517989948
596,-31.496549290963388
597,100.0
2,2, 5, 4, 0, 1, 0.00,10.00,Thursday
148,26.39977169334363
596,-31.10596481685017
597,100.0
2,2, 5, 4, 0, 1,10.00,20.00,Thursday
148,26.519594213512037
596,-30.965686394754614
597,100.0
2,2, 5, 4, 0, 1,20.00,30.00,Thursday
148,26.266457404025656
596,-31.44826565831459
597,100.0
2,2, 5, 4, 0, 1,30.00,40.00,Thursday
148,25.962462700602239
596,-32.05608261078336
597,100.0
2,2, 5, 4, 0, 1,40.00,50.00,Thursday
148,25.959742765641697
596,-32.132856905729607
597,100.0
2,2, 5, 4, 0, 1,50.00,60.00,Thursday
148,26.069283746726965
596,-32.00612536467095
597,100.0
2,2, 5, 4, 0, 2, 0.00,10.00,Thursday
148,26.266156501363974
596,-31.72785956309966
597,100.0
2,2, 5, 4, 0, 2,10.00,20.00,Thursday
148,26.205774602547775
596,-31.884353021330484
597,100.0
2,2, 5, 4, 0, 2,20.00,30.00,Thursday
148,26.195911796713337
596,-31.944935322867324
597,100.0
2,2, 5, 4, 0, 2,30.00,40.00,Thursday
148,26.082441470931874
596,-32.19993145483646
597,100.0
2,2, 5, 4, 0, 2,40.00,50.00,Thursday
148,25.94436546669845
596,-32.497836308107199
597,100.0
2,2, 5, 4, 0, 2,50.00,60.00,Thursday
148,25.875238194772096
596,-32.693410087356038
597,100.0
2,2, 5, 4, 0, 3, 0.00,10.00,Thursday
148,25.967844965169328
596,-32.61516294848758
597,100.0
2,2, 5, 4, 0, 3,10.00,20.00,Thursday
148,25.74903397481251
596,-33.076178916589757
597,100.0
2,2, 5, 4, 0, 3,20.00,30.00,Thursday
148,25.75373981492403
596,-33.16290498822809
597,100.0
2,2, 5, 4, 0, 3,30.00,40.00,Thursday
148,25.40765182262585
596,-33.83667297595858
597,100.0
2,2, 5, 4, 0, 3,40.00,50.00,Thursday
148,25.22287487505166
596,-34.24301689674551
597,100.0
2,2, 5, 4, 0, 3,50.00,60.00,Thursday
148,25.34438232120091
596,-34.136877719220588
597,100.0
2,2, 5, 4, 0, 4, 0.00,10.00,Thursday
148,25.301797441798127
596,-34.29630895449196
597,100.0
2,2, 5, 4, 0, 4,10.00,20.00,Thursday
148,25.15231399815712
596,-34.62834011743378
597,100.0
2,2, 5, 4, 0, 4,20.00,30.00,Thursday
148,24.998957659749985
596,-34.98881372274204
597,100.0
2,2, 5, 4, 0, 4,30.00,40.00,Thursday
148,24.8355096777288
596,-35.369057329839268
597,100.0
2,2, 5, 4, 0, 4,40.00,50.00,Thursday
148,24.759901822869577
596,-35.57855292919028
597,100.0
2,2, 5, 4, 0, 4,50.00,60.00,Thursday
148,24.70114542791562
596,-35.72115991841835
597,100.0
2,2, 5, 4, 0, 5, 0.00,10.00,Thursday
148,24.62024350036993
596,-35.97736304618834
597,100.0
2,2, 5, 4, 0, 5,10.00,20.00,Thursday
148,24.48676831963
596,-36.30955124878975
597,100.0
2,2, 5, 4, 0, 5,20.00,30.00,Thursday
148,24.223325693223054
596,-36.83664582329046
597,100.0
2,2, 5, 4, 0, 5,30.00,40.00,Thursday
148,24.154865786321048
596,-37.041031827544497
597,100.0
2,2, 5, 4, 0, 5,40.00,50.00,Thursday
148,24.15926776977644
596,-37.14110152368691
597,100.0
2,2, 5, 4, 0, 5,50.00,60.00,Thursday
148,24.078371460112359
596,-37.384702990492389
597,100.0
2,2, 5, 4, 0, 6, 0.00,10.00,Thursday
148,24.257239128423554
596,-37.110812345760759
597,100.0
2,2, 5, 4, 0, 6,10.00,20.00,Thursday
148,23.595600646822264
596,-38.41665194141166
597,100.0
2,2, 5, 4, 0, 6,20.00,30.00,Thursday
148,23.33336875848388
596,-39.02345685184879
597,100.0
2,2, 5, 4, 0, 6,30.00,40.00,Thursday
148,22.986310588359669
596,-39.79127334163572
597,100.0
2,2, 5, 4, 0, 6,40.00,50.00,Thursday
148,22.771452592911396
596,-40.317285293869847
597,100.0
2,2, 5, 4, 0, 6,50.00,60.00,Thursday
148,22.9510602064251
596,-40.024295368724498
597,100.0
2,2, 5, 4, 0, 7, 0.00,10.00,Thursday
148,23.381394690512545
596,-39.26891535667178
597,100.0
2,2, 5, 4, 0, 7,10.00,20.00,Thursday
148,23.619076287116497
596,-38.83230795620059
597,100.0
2,2, 5, 4, 0, 7,20.00,30.00,Thursday
148,23.322033064501118
596,-39.405580605891099
597,100.0
2,2, 5, 4, 0, 7,30.00,40.00,Thursday
148,23.600323375769329
596,-38.98937488814896
597,100.0
2,2, 5, 4, 0, 7,40.00,50.00,Thursday
148,23.841395463159729
596,-38.52570707322059
597,100.0
2,2, 5, 4, 0, 7,50.00,60.00,Thursday
148,23.983743986143208
596,-38.263985361706918
597,100.0
2,2, 5, 4, 0, 8, 0.00,10.00,Thursday
148,23.998866590005055
596,-38.22740468116631
597,100.0
2,2, 5, 4, 0, 8,10.00,20.00,Thursday
148,23.82909490076975
596,-38.507421674889
597,100.0
2,2, 5, 4, 0, 8,20.00,30.00,Thursday
148,23.673755742484308
596,-38.772686339372679
597,100.0
2,2, 5, 4, 0, 8,30.00,40.00,Thursday
148,23.779134541561449
596,-38.51497881526472
597,100.0
2,2, 5, 4, 0, 8,40.00,50.00,Thursday
148,24.0107146821397
596,-37.98550777517531
597,100.0
2,2, 5, 4, 0, 8,50.00,60.00,Thursday
148,24.430438121110396
596,-37.14709497165901
597,100.0
2,2, 5, 4, 0, 9, 0.00,10.00,Thursday
148,24.79931585793537
596,-36.39562739873827
597,100.0
2,2, 5, 4, 0, 9,10.00,20.00,Thursday
148,25.02526384641261
596,-35.987182832095829
597,100.0
2,2, 5, 4, 0, 9,20.00,30.00,Thursday
148,25.255041299820176
596,-35.41781247240161
597,100.0
2,2, 5, 4, 0, 9,30.00,40.00,Thursday
148,25.49259273174473
596,-34.87066328443521
597,100.0
2,2, 5, 4, 0, 9,40.00,50.00,Thursday
148,25.688766127073003
596,-34.37430758264232
597,100.0
2,2, 5, 4, 0, 9,50.00,60.00,Thursday
148,25.792219850918298
596,-34.16584566397643
597,100.0
2,2, 5, 4, 0,10, 0.00,10.00,Thursday
148,27.39291277305676
596,-0.003447546744828326
597,5.000246037550326
2,2, 5, 4, 0,10,10.00,20.00,Thursday
148,27.477043682950524
596,0.041688981614789528
597,5.035979678993172
2,2, 5, 4, 0,10,20.00,30.00,Thursday
148,27.751812293978799
596,0.11458179166719015
597,5.2719357050106769
2,2, 5, 4, 0,10,30.00,40.00,Thursday
148,27.978997019645154
596,0.16820805814115317
597,5.586431460308972
2,2, 5, 4, 0,10,40.00,50.00,Thursday
148,28.124645085658366
596,0.2163587034330323
597,5.970996565606853
2,2, 5, 4, 0,10,50.00,60.00,Thursday
148,28.369039873052175
596,0.2864730760202229
597,6.704795531466658
2,2, 5, 4, 0,11, 0.00,10.00,Thursday
148,28.545927747066647
596,0.3425205319995599
597,7.440536540596469
2,2, 5, 4, 0,11,10.00,20.00,Thursday
148,28.59914948849761
596,0.3693764182207078
597,7.840325373879878
2,2, 5, 4, 0,11,20.00,30.00,Thursday
148,28.746539542812998
596,0.4149279129621003
597,8.58877864862444
2,2, 5, 4, 0,11,30.00,40.00,Thursday
148,28.894425408032089
596,0.4670407943581997
597,9.554120311883708
2,2, 5, 4, 0,11,40.00,50.00,Thursday
148,28.972374940814313
596,0.4913395360251475
597,10.044194281899138
2,2, 5, 4, 0,11,50.00,60.00,Thursday
148,29.220482523233355
596,0.5679664638534829
597,11.7568356113363
2,2, 5, 4, 0,12, 0.00,10.00,Thursday
148,29.408140679533394
596,0.6352486162198967
597,13.470521186955822
2,2, 5, 4, 0,12,10.00,20.00,Thursday
148,29.713739201167468
596,0.7169463966143751
597,15.815170141592532
2,2, 5, 4, 0,12,20.00,30.00,Thursday
148,29.943647407490908
596,0.7927449987898653
597,18.247500947352138
2,2, 5, 4, 0,12,30.00,40.00,Thursday
148,30.121840593523197
596,0.8463442341497004
597,20.114709204533655
2,2, 5, 4, 0,12,40.00,50.00,Thursday
148,30.211794130029135
596,0.8815853507577358
597,21.407716633186284
2,2, 5, 4, 0,12,50.00,60.00,Thursday
148,30.2545725599964
596,0.8996454747446923
597,22.090139345207164
2,2, 5, 4, 0,13, 0.00,10.00,Thursday
148,30.402803119182076
596,0.9504386952587282
597,24.080042093271758
2,2, 5, 4, 0,13,10.00,20.00,Thursday
148,30.67439525368322
596,1.0451215006621333
597,28.05761717172487
2,2, 5, 4, 0,13,20.00,30.00,Thursday
148,30.90151040418612
596,1.108560853661724
597,30.906505228617989
2,2, 5, 4, 0,13,30.00,40.00,Thursday
148,30.988320287042016
596,1.1401633126254172
597,32.37690153224838
2,2, 5, 4, 0,13,40.00,50.00,Thursday
148,31.106060957977577
596,1.173938228000231
597,33.98377986193955
2,2, 5, 4, 0,13,50.00,60.00,Thursday
148,31.28306090966892
596,1.2276890372778809
597,36.611463854684739
2,2, 5, 4, 0,14, 0.00,10.00,Thursday
148,31.41211744421023
596,1.2776940623814122
597,39.12667214835028
2,2, 5, 4, 0,14,10.00,20.00,Thursday
148,31.566130224303337
596,1.3151356460071638
597,41.049529848923949
2,2, 5, 4, 0,14,20.00,30.00,Thursday
148,31.59808749081693
596,1.3271200395935937
597,41.671477477979419
2,2, 5, 4, 0,14,30.00,40.00,Thursday
148,31.568392773201038
596,1.3290926034758346
597,41.774130257951849
2,2, 5, 4, 0,14,40.00,50.00,Thursday
148,31.68268933585673
596,1.3464624545516673
597,42.68139230371109
2,2, 5, 4, 0,14,50.00,60.00,Thursday
148,31.814730281064727
596,1.416347380801622
597,46.38496664882733
2,2, 5, 4, 0,15, 0.00,10.00,Thursday
148,32.03422395629431
596,-22.878842625503034
597,100.0
2,2, 5, 4, 0,15,10.00,20.00,Thursday
148,31.871453277269187
596,-23.226987874106059
597,100.0
2,2, 5, 4, 0,15,20.00,30.00,Thursday
148,31.9354006189398
596,-23.123984015408938
597,100.0
2,2, 5, 4, 0,15,30.00,40.00,Thursday
148,31.898882471381268
596,-23.250839265404303
597,100.0
2,2, 5, 4, 0,15,40.00,50.00,Thursday
148,31.887196316952438
596,-23.179548474006489
597,100.0
2,2, 5, 4, 0,15,50.00,60.00,Thursday
148,32.00503966692493
596,-22.698557014126505
597,100.0
2,2, 5, 4, 0,16, 0.00,10.00,Thursday
148,32.35350637534547
596,-21.63862376965428
597,100.0
2,2, 5, 4, 0,16,10.00,20.00,Thursday
148,32.64483789353092
596,-20.710551998714715
597,100.0
2,2, 5, 4, 0,16,20.00,30.00,Thursday
148,32.70648517935192
596,-20.48027632424092
597,100.0
2,2, 5, 4, 0,16,30.00,40.00,Thursday
148,32.8628203056339
596,1.0426500632829415
597,27.949523698963206
2,2, 5, 4, 0,16,40.00,50.00,Thursday
148,32.8678335288928
596,1.0355057341894567
597,27.63830456597246
2,2, 5, 4, 0,16,50.00,60.00,Thursday
148,32.6950808699927
596,0.9633388064544646
597,24.60174545109176
2,2, 5, 4, 0,17, 0.00,10.00,Thursday
148,32.737194076255828
596,1.8734900037857075
597,70.74732868177462
2,2, 5, 4, 0,17,10.00,20.00,Thursday
148,33.05091946615984
596,1.9359497796451275
597,73.78790149334587
2,2, 5, 4, 0,17,20.00,30.00,Thursday
148,32.976270721659847
596,1.9271678869266438
597,73.36831989058709
2,2, 5, 4, 0,17,30.00,40.00,Thursday
148,32.95824187186411
596,1.9325991119037316
597,73.62813388557329
2,2, 5, 4, 0,17,40.00,50.00,Thursday
148,32.80184669588418
596,1.8997671339409004
597,72.04213471893265
2,2, 5, 4, 0,17,50.00,60.00,Thursday
148,32.72021728188119
596,1.871389708866601
597,70.64291203236509
2,2, 5, 4, 0,18, 0.00,10.00,Thursday
148,32.61072809859057
596,1.8485945146291676
597,69.50126625009726
2,2, 5, 4, 0,18,10.00,20.00,Thursday
148,32.61580030636972
596,1.851576316221932
597,69.65145588574335
2,2, 5, 4, 0,18,20.00,30.00,Thursday
148,32.6690318411199
596,1.870329738057369
597,70.590164809236
2,2, 5, 4, 0,18,30.00,40.00,Thursday
148,32.74651545885278
596,1.892716495267902
597,71.69685907572885
2,2, 5, 4, 0,18,40.00,50.00,Thursday
148,32.83983137766551
596,1.9154002845092844
597,72.80188124170056
2,2, 5, 4, 0,18,50.00,60.00,Thursday
148,32.739701488616748
596,1.888549813848018
597,71.49206364270786
2,2, 5, 4, 0,19, 0.00,10.00,Thursday
148,31.393847048750304
596,-19.303486557921297
597,100.0
2,2, 5, 4, 0,19,10.00,20.00,Thursday
148,30.949976260754946
596,-20.045494619003806
597,100.0
2,2, 5, 4, 0,19,20.00,30.00,Thursday
148,30.88269702153314
596,-20.153495196598226
597,100.0
2,2, 5, 4, 0,19,30.00,40.00,Thursday
148,30.616760993987847
596,-20.580755822715536
597,100.0
2,2, 5, 4, 0,19,40.00,50.00,Thursday
148,30.57938719913944
596,-20.71562004643729
597,100.0
2,2, 5, 4, 0,19,50.00,60.00,Thursday
148,30.4865745591838
596,-20.98890605718999
597,100.0
2,2, 5, 4, 0,20, 0.00,10.00,Thursday
148,30.327896105181769
596,-21.284770316097395
597,100.0
2,2, 5, 4, 0,20,10.00,20.00,Thursday
148,30.08976629658432
596,-21.690564172720323
597,100.0
2,2, 5, 4, 0,20,20.00,30.00,Thursday
148,29.867285543893837
596,-22.078650689364858
597,100.0
2,2, 5, 4, 0,20,30.00,40.00,Thursday
148,29.713482433343768
596,-22.351242620606514
597,100.0
2,2, 5, 4, 0,20,40.00,50.00,Thursday
148,29.581992145191728
596,-22.58599042900655
597,100.0
2,2, 5, 4, 0,20,50.00,60.00,Thursday
148,29.49484648635132
596,-22.739220935745494
597,100.0
2,2, 5, 4, 0,21, 0.00,10.00,Thursday
148,29.412089981553096
596,-22.909409089179328
597,100.0
2,2, 5, 4, 0,21,10.00,20.00,Thursday
148,29.329036051444036
596,-23.07105182759175
597,100.0
2,2, 5, 4, 0,21,20.00,30.00,Thursday
148,29.22387405049434
596,-23.291124209558537
597,100.0
2,2, 5, 4, 0,21,30.00,40.00,Thursday
148,29.180870772489706
596,-23.39716982885686
597,100.0
2,2, 5, 4, 0,21,40.00,50.00,Thursday
148,29.1186074222096
596,-23.5421034770251
597,100.0
2,2, 5, 4, 0,21,50.00,60.00,Thursday
148,28.984068139703564
596,-23.79961480301545
597,100.0
2,2, 5, 4, 0,22, 0.00,10.00,Thursday
148,28.7394020749542
596,-24.27452982942774
597,100.0
2,2, 5, 4, 0,22,10.00,20.00,Thursday
148,28.64048993195475
596,-24.509973313405568
597,100.0
2,2, 5, 4, 0,22,20.00,30.00,Thursday
148,28.477166996524283
596,-24.89459142027113
597,100.0
2,2, 5, 4, 0,22,30.00,40.00,Thursday
148,28.47557296132106
596,-24.906925613722785
597,100.0
2,2, 5, 4, 0,22,40.00,50.00,Thursday
148,28.4604087071626
596,-25.025807850969036
597,100.0
2,2, 5, 4, 0,22,50.00,60.00,Thursday
148,28.534696689920567
596,-25.00962564527861
597,100.0
2,2, 5, 4, 0,23, 0.00,10.00,Thursday
148,28.476162097912267
596,-25.162160457962299
597,100.0
2,2, 5, 4, 0,23,10.00,20.00,Thursday
148,28.472401060443955
596,-25.267811470650565
597,100.0
2,2, 5, 4, 0,23,20.00,30.00,Thursday
148,28.391032194086188
596,-25.45929366843351
597,100.0
2,2, 5, 4, 0,23,30.00,40.00,Thursday
148,28.26644413012723
596,-25.76290346319768
597,100.0
2,2, 5, 4, 0,23,40.00,50.00,Thursday
148,28.159696011785785
596,-26.033890270418746
597,100.0
2,2, 5, 4, 0,23,50.00,60.00,Thursday
148,28.122558387976225
596,-26.143370990947675
597,100.0
2,2, 5, 4, 0,24, 0.00,10.00,Thursday
148,28.10314039200165
596,-26.23164695240177
597,100.0
2,2, 5, 4, 0,24,10.00,20.00,Thursday
148,27.900699335937838
596,-26.654595680657289
597,100.0
2,2, 5, 4, 0,24,20.00,30.00,Thursday
148,27.812259704563059
596,-26.92006946859294
597,100.0
2,2, 5, 4, 0,24,30.00,40.00,Thursday
148,27.82868960350889
596,-26.976218962041935
597,100.0
2,2, 5, 4, 0,24,40.00,50.00,Thursday
148,27.783928819008435
596,-27.172393365235846
597,100.0
2,2, 5, 4, 0,24,50.00,60.00,Thursday
148,27.60296637723695
596,-27.523679680990847
597,100.0
2,3, 5, 5, 0, 1, 0.00,10.00,Friday
148,27.459552336975354
596,-27.86345473929161
597,100.0
2,3, 5, 5, 0, 1,10.00,20.00,Friday
148,27.405062825293635
596,-28.022832132216757
597,100.0
2,3, 5, 5, 0, 1,20.00,30.00,Friday
148,27.440424665187515
596,-28.056649768778713
597,100.0
2,3, 5, 5, 0, 1,30.00,40.00,Friday
148,27.44849414503737
596,-28.079025596206824
597,100.0
2,3, 5, 5, 0, 1,40.00,50.00,Friday
148,27.232535074709085
596,-28.549961115280018
597,100.0
2,3, 5, 5, 0, 1,50.00,60.00,Friday
148,27.227031152301114
596,-28.63946071913343
597,100.0
2,3, 5, 5, 0, 2, 0.00,10.00,Friday
148,27.24333067154901
596,-28.690866428684925
597,100.0
2,3, 5, 5, 0, 2,10.00,20.00,Friday
148,27.22667078917644
596,-28.821290273081279
597,100.0
2,3, 5, 5, 0, 2,20.00,30.00,Friday
148,27.007537650253867
596,-29.27657191613661
597,100.0
2,3, 5, 5, 0, 2,30.00,40.00,Friday
148,26.227057333378285
596,-30.757830684459326
597,100.0
2,3, 5, 5, 0, 2,40.00,50.00,Friday
148,25.854322441459474
596,-31.587877954252
597,100.0
2,3, 5, 5, 0, 2,50.00,60.00,Friday
148,25.397025326837409
596,-32.52617955073688
597,100.0