Program Version,EnergyPlus, Version 9.2.0-921312fa1d, YMD=2021.11.28 14:38
1,5,Environment Title[],Latitude[deg],Longitude[deg],Time Zone[],Elevation[m]
2,8,Day of Simulation[],Month[],Day of Month[],DST Indicator[1=yes 0=no],Hour[],StartMinute[],EndMinute[],DayType
3,5,Cumulative Day of Simulation[],Month[],Day of Month[],DST Indicator[1=yes 0=no],DayType  ! When Daily Report Variables Requested
4,2,Cumulative Days of Simulation[],Month[]  ! When Monthly Report Variables Requested
5,1,Cumulative Days of Simulation[] ! When Run Period Report Variables Requested
6,1,Calendar Year of Simulation[] ! When Annual Report Variables Requested
7,9,Environment,Site Outdoor Air Drybulb Temperature [C] !Monthly [Value,Min,Day,Hour,Minute,Max,Day,Hour,Minute]
8,1,Environment,Site Outdoor Air Wetbulb Temperature [C] !TimeStep
95,1,THERMAL ZONE: CUBO3X3,Zone Air Temperature [C] !Hourly
96,7,THERMAL ZONE: CUBO3X3,Zone Air Relative Humidity [%] !Daily [Value,Min,Hour,Minute,Max,Hour,Minute]
End of Data Dictionary
1,RUN PERIOD 1,  18.85, -99.14,  -6.00,1280.00
2,1, 1, 1, 0, 1, 0.00,10.00,Sunday
8,11.377335487735112
2,1, 1, 1, 0, 1,10.00,20.00,Sunday
8,11.424863977476777
2,1, 1, 1, 0, 1,20.00,30.00,Sunday
8,11.297230538567176
2,1, 1, 1, 0, 1,30.00,40.00,Sunday
8,11.404733509668454
2,1, 1, 1, 0, 1,40.00,50.00,Sunday
8,11.241974262943064
2,1, 1, 1, 0, 1,50.00,60.00,Sunday
8,11.079959015266982
2,1, 1, 1, 0, 1, 0.00,60.00,Sunday
95,18.06949155937065
2,1, 1, 1, 0, 2, 0.00,10.00,Sunday
8,11.055693992360265
2,1, 1, 1, 0, 2,10.00,20.00,Sunday
8,11.300287566632625
2,1, 1, 1, 0, 2,20.00,30.00,Sunday
8,11.192877861550711
2,1, 1, 1, 0, 2,30.00,40.00,Sunday
8,11.133479962759184
2,1, 1, 1, 0, 2,40.00,50.00,Sunday
8,11.055441200071414
2,1, 1, 1, 0, 2,50.00,60.00,Sunday
8,11.055184726689049
2,1, 1, 1, 0, 2, 0.00,60.00,Sunday
95,18.110581924969268
2,1, 1, 1, 0, 3, 0.00,10.00,Sunday
8,10.946093919954935
2,1, 1, 1, 0, 3,10.00,20.00,Sunday
8,10.848595808075129
2,1, 1, 1, 0, 3,20.00,30.00,Sunday
8,10.863475725881037
2,1, 1, 1, 0, 3,30.00,40.00,Sunday
8,10.559570332836725
2,1, 1, 1, 0, 3,40.00,50.00,Sunday
8,10.347464281298678
2,1, 1, 1, 0, 3,50.00,60.00,Sunday
8,10.104297987064366
2,1, 1, 1, 0, 3, 0.00,60.00,Sunday
95,18.134086354268978
2,1, 1, 1, 0, 4, 0.00,10.00,Sunday
8,10.120130965660004
2,1, 1, 1, 0, 4,10.00,20.00,Sunday
8,9.852999175372004
2,1, 1, 1, 0, 4,20.00,30.00,Sunday
8,9.446863022966385
2,1, 1, 1, 0, 4,30.00,40.00,Sunday
8,9.674755182958985
2,1, 1, 1, 0, 4,40.00,50.00,Sunday
8,9.534936304932878
2,1, 1, 1, 0, 4,50.00,60.00,Sunday
8,9.646248109421475
2,1, 1, 1, 0, 4, 0.00,60.00,Sunday
95,18.14129520928974
2,1, 1, 1, 0, 5, 0.00,10.00,Sunday
8,9.427353860074517
2,1, 1, 1, 0, 5,10.00,20.00,Sunday
8,9.505726585501499
2,1, 1, 1, 0, 5,20.00,30.00,Sunday
8,9.348456758353012
2,1, 1, 1, 0, 5,30.00,40.00,Sunday
8,9.193008984986843
2,1, 1, 1, 0, 5,40.00,50.00,Sunday
8,9.193192550198703
2,1, 1, 1, 0, 5,50.00,60.00,Sunday
8,9.604360453378148
2,1, 1, 1, 0, 5, 0.00,60.00,Sunday
95,18.132458153758529
2,1, 1, 1, 0, 6, 0.00,10.00,Sunday
8,9.32665401010689
2,1, 1, 1, 0, 6,10.00,20.00,Sunday
8,9.242616883173876
2,1, 1, 1, 0, 6,20.00,30.00,Sunday
8,9.21040317495338
2,1, 1, 1, 0, 6,30.00,40.00,Sunday
8,9.324030196296349
2,1, 1, 1, 0, 6,40.00,50.00,Sunday
8,9.26248573759254
2,1, 1, 1, 0, 6,50.00,60.00,Sunday
8,9.219882999974788
2,1, 1, 1, 0, 6, 0.00,60.00,Sunday
95,18.10708356372832
2,1, 1, 1, 0, 7, 0.00,10.00,Sunday
8,8.97150884842136
2,1, 1, 1, 0, 7,10.00,20.00,Sunday
8,9.302164993224365
2,1, 1, 1, 0, 7,20.00,30.00,Sunday
8,9.097837183846166
2,1, 1, 1, 0, 7,30.00,40.00,Sunday
8,9.098290136994729
2,1, 1, 1, 0, 7,40.00,50.00,Sunday
8,9.056338357432792
2,1, 1, 1, 0, 7,50.00,60.00,Sunday
8,9.034501880154548
2,1, 1, 1, 0, 7, 0.00,60.00,Sunday
95,18.06568968109362
2,1, 1, 1, 0, 8, 0.00,10.00,Sunday
8,9.095729485905343
2,1, 1, 1, 0, 8,10.00,20.00,Sunday
8,9.00353968933174
2,1, 1, 1, 0, 8,20.00,30.00,Sunday
8,8.761787860848389
2,1, 1, 1, 0, 8,30.00,40.00,Sunday
8,8.88902836374425
2,1, 1, 1, 0, 8,40.00,50.00,Sunday
8,9.00513982872751
2,1, 1, 1, 0, 8,50.00,60.00,Sunday
8,9.27845958288313
2,1, 1, 1, 0, 8, 0.00,60.00,Sunday
95,18.00894782592344
2,1, 1, 1, 0, 9, 0.00,10.00,Sunday
8,9.490552314559418
2,1, 1, 1, 0, 9,10.00,20.00,Sunday
8,10.158340768033039
2,1, 1, 1, 0, 9,20.00,30.00,Sunday
8,10.488037182480614
2,1, 1, 1, 0, 9,30.00,40.00,Sunday
8,9.738576495744253
2,1, 1, 1, 0, 9,40.00,50.00,Sunday
8,10.11666558666491
2,1, 1, 1, 0, 9,50.00,60.00,Sunday
8,10.258993704763372
2,1, 1, 1, 0, 9, 0.00,60.00,Sunday
95,17.938968606402374
2,1, 1, 1, 0,10, 0.00,10.00,Sunday
8,10.84041702134658
2,1, 1, 1, 0,10,10.00,20.00,Sunday
8,11.152292002073338
2,1, 1, 1, 0,10,20.00,30.00,Sunday
8,11.562125136083603
2,1, 1, 1, 0,10,30.00,40.00,Sunday
8,11.874993602280267
2,1, 1, 1, 0,10,40.00,50.00,Sunday
8,11.880369163325034
2,1, 1, 1, 0,10,50.00,60.00,Sunday
8,11.569569778992502
2,1, 1, 1, 0,10, 0.00,60.00,Sunday
95,17.8585838516703
2,1, 1, 1, 0,11, 0.00,10.00,Sunday
8,11.727375056801688
2,1, 1, 1, 0,11,10.00,20.00,Sunday
8,12.082060888932375
2,1, 1, 1, 0,11,20.00,30.00,Sunday
8,12.323397837713065
2,1, 1, 1, 0,11,30.00,40.00,Sunday
8,12.641445766070225
2,1, 1, 1, 0,11,40.00,50.00,Sunday
8,12.855000573771039
2,1, 1, 1, 0,11,50.00,60.00,Sunday
8,12.946868311797739
2,1, 1, 1, 0,11, 0.00,60.00,Sunday
95,17.76956399513996
2,1, 1, 1, 0,12, 0.00,10.00,Sunday
8,12.711962948137936
2,1, 1, 1, 0,12,10.00,20.00,Sunday
8,12.722543436874757
2,1, 1, 1, 0,12,20.00,30.00,Sunday
8,12.011063571611136
2,1, 1, 1, 0,12,30.00,40.00,Sunday
8,11.43639312514269
2,1, 1, 1, 0,12,40.00,50.00,Sunday
8,11.37526428870247
2,1, 1, 1, 0,12,50.00,60.00,Sunday
8,11.242192193413171
2,1, 1, 1, 0,12, 0.00,60.00,Sunday
95,17.676820925531716
2,1, 1, 1, 0,13, 0.00,10.00,Sunday
8,11.437547931497257
2,1, 1, 1, 0,13,10.00,20.00,Sunday
8,11.772828536375482
2,1, 1, 1, 0,13,20.00,30.00,Sunday
8,11.957433277503995
2,1, 1, 1, 0,13,30.00,40.00,Sunday
8,11.629329972523088
2,1, 1, 1, 0,13,40.00,50.00,Sunday
8,11.505853439917189
2,1, 1, 1, 0,13,50.00,60.00,Sunday
8,11.530127668173874
2,1, 1, 1, 0,13, 0.00,60.00,Sunday
95,17.59007234536273
2,1, 1, 1, 0,14, 0.00,10.00,Sunday
8,11.346285694683138
2,1, 1, 1, 0,14,10.00,20.00,Sunday
8,11.203269895840327
2,1, 1, 1, 0,14,20.00,30.00,Sunday
8,11.53110139397361
2,1, 1, 1, 0,14,30.00,40.00,Sunday
8,11.263663439025186
2,1, 1, 1, 0,14,40.00,50.00,Sunday
8,11.673829259989635
2,1, 1, 1, 0,14,50.00,60.00,Sunday
8,11.563441070151557
2,1, 1, 1, 0,14, 0.00,60.00,Sunday
95,17.51772786445242
2,1, 1, 1, 0,15, 0.00,10.00,Sunday
8,11.684748398785099
2,1, 1, 1, 0,15,10.00,20.00,Sunday
8,11.558781729581665
2,1, 1, 1, 0,15,20.00,30.00,Sunday
8,11.557957557613094
2,1, 1, 1, 0,15,30.00,40.00,Sunday
8,11.732059593335415
2,1, 1, 1, 0,15,40.00,50.00,Sunday
8,11.963987932995409
2,1, 1, 1, 0,15,50.00,60.00,Sunday
8,11.206220490947477
2,1, 1, 1, 0,15, 0.00,60.00,Sunday
95,17.466232622028924
2,1, 1, 1, 0,16, 0.00,10.00,Sunday
8,11.679925743360372
2,1, 1, 1, 0,16,10.00,20.00,Sunday
8,11.680797479329027
2,1, 1, 1, 0,16,20.00,30.00,Sunday
8,11.797729776275855
2,1, 1, 1, 0,16,30.00,40.00,Sunday
8,11.728547269942928
2,1, 1, 1, 0,16,40.00,50.00,Sunday
8,11.915987883679926
2,1, 1, 1, 0,16,50.00,60.00,Sunday
8,12.092400363438271
2,1, 1, 1, 0,16, 0.00,60.00,Sunday
95,17.442009891008607
2,1, 1, 1, 0,17, 0.00,10.00,Sunday
8,12.426352704374624
2,1, 1, 1, 0,17,10.00,20.00,Sunday
8,11.9032221814899
2,1, 1, 1, 0,17,20.00,30.00,Sunday
8,11.903499749015655
2,1, 1, 1, 0,17,30.00,40.00,Sunday
8,12.137535284812407
2,1, 1, 1, 0,17,40.00,50.00,Sunday
8,11.73020005382772
2,1, 1, 1, 0,17,50.00,60.00,Sunday
8,12.137950400916378
2,1, 1, 1, 0,17, 0.00,60.00,Sunday
95,17.446052953094065
2,1, 1, 1, 0,18, 0.00,10.00,Sunday
8,12.138710685350742
2,1, 1, 1, 0,18,10.00,20.00,Sunday
8,11.615046394579469
2,1, 1, 1, 0,18,20.00,30.00,Sunday
8,11.614772997824592
2,1, 1, 1, 0,18,30.00,40.00,Sunday
8,12.641321589705332
2,1, 1, 1, 0,18,40.00,50.00,Sunday
8,11.384781489856455
2,1, 1, 1, 0,18,50.00,60.00,Sunday
8,11.25827499322337
2,1, 1, 1, 0,18, 0.00,60.00,Sunday
95,17.478098932993779
2,1, 1, 1, 0,19, 0.00,10.00,Sunday
8,11.259638413115523
2,1, 1, 1, 0,19,10.00,20.00,Sunday
8,11.279307910671296
2,1, 1, 1, 0,19,20.00,30.00,Sunday
8,11.030258372768378
2,1, 1, 1, 0,19,30.00,40.00,Sunday
8,10.804592144523314
2,1, 1, 1, 0,19,40.00,50.00,Sunday
8,10.960241524965787
2,1, 1, 1, 0,19,50.00,60.00,Sunday
8,10.539605995048131
2,1, 1, 1, 0,19, 0.00,60.00,Sunday
95,17.53711972836337
2,1, 1, 1, 0,20, 0.00,10.00,Sunday
8,10.529267678590682
2,1, 1, 1, 0,20,10.00,20.00,Sunday
8,10.319751782843295
2,1, 1, 1, 0,20,20.00,30.00,Sunday
8,10.21049853168831
2,1, 1, 1, 0,20,30.00,40.00,Sunday
8,10.309355117469839
2,1, 1, 1, 0,20,40.00,50.00,Sunday
8,10.238617071039874
2,1, 1, 1, 0,20,50.00,60.00,Sunday
8,10.096225469539072
2,1, 1, 1, 0,20, 0.00,60.00,Sunday
95,17.61908049194593
2,1, 1, 1, 0,21, 0.00,10.00,Sunday
8,10.070753892255944
2,1, 1, 1, 0,21,10.00,20.00,Sunday
8,10.071268224443135
2,1, 1, 1, 0,21,20.00,30.00,Sunday
8,9.811580940019294
2,1, 1, 1, 0,21,30.00,40.00,Sunday
8,9.687158751135483
2,1, 1, 1, 0,21,40.00,50.00,Sunday
8,9.882717926668353
2,1, 1, 1, 0,21,50.00,60.00,Sunday
8,9.901999924230937
2,1, 1, 1, 0,21, 0.00,60.00,Sunday
95,17.71842881654551
2,1, 1, 1, 0,22, 0.00,10.00,Sunday
8,9.762158119032478
2,1, 1, 1, 0,22,10.00,20.00,Sunday
8,9.762300933600523
2,1, 1, 1, 0,22,20.00,30.00,Sunday
8,9.692650227428898
2,1, 1, 1, 0,22,30.00,40.00,Sunday
8,9.482409865898305
2,1, 1, 1, 0,22,40.00,50.00,Sunday
8,9.594318193843236
2,1, 1, 1, 0,22,50.00,60.00,Sunday
8,9.629854034722964
2,1, 1, 1, 0,22, 0.00,60.00,Sunday
95,17.824199480077494
2,1, 1, 1, 0,23, 0.00,10.00,Sunday
8,9.663123899146055
2,1, 1, 1, 0,23,10.00,20.00,Sunday
8,9.767815352298543
2,1, 1, 1, 0,23,20.00,30.00,Sunday
8,9.594561684730567
2,1, 1, 1, 0,23,30.00,40.00,Sunday
8,9.202751257058456
2,1, 1, 1, 0,23,40.00,50.00,Sunday
8,9.595243731541313
2,1, 1, 1, 0,23,50.00,60.00,Sunday
8,9.525799697222169
2,1, 1, 1, 0,23, 0.00,60.00,Sunday
95,17.922024013441818
2,1, 1, 1, 0,24, 0.00,10.00,Sunday
8,9.525894846170102
2,1, 1, 1, 0,24,10.00,20.00,Sunday
8,9.525993663518845
2,1, 1, 1, 0,24,20.00,30.00,Sunday
8,9.425770102772339
2,1, 1, 1, 0,24,30.00,40.00,Sunday
8,9.426368248732548
2,1, 1, 1, 0,24,40.00,50.00,Sunday
8,9.387065185469979
2,1, 1, 1, 0,24,50.00,60.00,Sunday
8,9.386702765373422
2,1, 1, 1, 0,24, 0.00,60.00,Sunday
95,18.003118838837297
3,1, 1, 1, 0,Sunday
96,46.66967733452514,45.69149393812605, 4,60,47.67533809418099,16,50
2,2, 1, 2, 0, 1, 0.00,10.00,Monday
8,9.180755444672064
2,2, 1, 2, 0, 1,10.00,20.00,Monday
8,8.840378444298438
2,2, 1, 2, 0, 1,20.00,30.00,Monday
8,8.965389375205336
2,2, 1, 2, 0, 1,30.00,40.00,Monday
8,8.61600987864323
2,2, 1, 2, 0, 1,40.00,50.00,Monday
8,8.536480698350335
2,2, 1, 2, 0, 1,50.00,60.00,Monday
8,8.678959574261562
2,2, 1, 2, 0, 1, 0.00,60.00,Monday
95,18.06435923606658
2,2, 1, 2, 0, 2, 0.00,10.00,Monday
8,8.621445206099028
2,2, 1, 2, 0, 2,10.00,20.00,Monday
8,8.327520900376209
2,2, 1, 2, 0, 2,20.00,30.00,Monday
8,8.330078321634972
2,2, 1, 2, 0, 2,30.00,40.00,Monday
8,8.329731848414488
2,2, 1, 2, 0, 2,40.00,50.00,Monday
8,8.110947782078128
2,2, 1, 2, 0, 2,50.00,60.00,Monday
8,8.256991195292569
2,2, 1, 2, 0, 2, 0.00,60.00,Monday
95,18.105629083807839
2,2, 1, 2, 0, 3, 0.00,10.00,Monday
8,7.87240237893452
2,2, 1, 2, 0, 3,10.00,20.00,Monday
8,7.8884153891940269
2,2, 1, 2, 0, 3,20.00,30.00,Monday
8,7.807760875133238
2,2, 1, 2, 0, 3,30.00,40.00,Monday
8,7.672206688683732
2,2, 1, 2, 0, 3,40.00,50.00,Monday
8,7.674570190648774
2,2, 1, 2, 0, 3,50.00,60.00,Monday
8,7.673277723830736
2,2, 1, 2, 0, 3, 0.00,60.00,Monday
95,18.12922565696934
2,2, 1, 2, 0, 4, 0.00,10.00,Monday
8,7.744588729798345
2,2, 1, 2, 0, 4,10.00,20.00,Monday
8,7.732643505984317
2,2, 1, 2, 0, 4,20.00,30.00,Monday
8,7.5973051690384258
2,2, 1, 2, 0, 4,30.00,40.00,Monday
8,7.526404413756217
2,2, 1, 2, 0, 4,40.00,50.00,Monday
8,7.526902138669844
2,2, 1, 2, 0, 4,50.00,60.00,Monday
8,7.449459166874164
2,2, 1, 2, 0, 4, 0.00,60.00,Monday
95,18.136153203230316
2,2, 1, 2, 0, 5, 0.00,10.00,Monday
8,7.308402815351509
2,2, 1, 2, 0, 5,10.00,20.00,Monday
8,7.384091702130288
2,2, 1, 2, 0, 5,20.00,30.00,Monday
8,7.455164289965842
2,2, 1, 2, 0, 5,30.00,40.00,Monday
8,7.386076906880108
2,2, 1, 2, 0, 5,40.00,50.00,Monday
8,7.314312701187078
2,2, 1, 2, 0, 5,50.00,60.00,Monday
8,7.242705577315504
2,2, 1, 2, 0, 5, 0.00,60.00,Monday
95,18.12576295472699
2,2, 1, 2, 0, 6, 0.00,10.00,Monday
8,7.170770767485665
2,2, 1, 2, 0, 6,10.00,20.00,Monday
8,7.16745925737382
2,2, 1, 2, 0, 6,20.00,30.00,Monday
8,7.088557596624185
2,2, 1, 2, 0, 6,30.00,40.00,Monday
8,7.0881781249262769
2,2, 1, 2, 0, 6,40.00,50.00,Monday
8,7.240730263019577
2,2, 1, 2, 0, 6,50.00,60.00,Monday
8,7.381900232572544
2,2, 1, 2, 0, 6, 0.00,60.00,Monday
95,18.097600742429653
2,2, 1, 2, 0, 7, 0.00,10.00,Monday
8,7.0888518372385909
2,2, 1, 2, 0, 7,10.00,20.00,Monday
8,7.227761104644665
2,2, 1, 2, 0, 7,20.00,30.00,Monday
8,7.23593694758663
2,2, 1, 2, 0, 7,30.00,40.00,Monday
8,7.2425342161971539
2,2, 1, 2, 0, 7,40.00,50.00,Monday
8,7.38798988762202
2,2, 1, 2, 0, 7,50.00,60.00,Monday
8,7.456665485539476
2,2, 1, 2, 0, 7, 0.00,60.00,Monday
95,18.052358857776019
2,2, 1, 2, 0, 8, 0.00,10.00,Monday
8,7.238540848120236
2,2, 1, 2, 0, 8,10.00,20.00,Monday
8,7.2182361508557248
2,2, 1, 2, 0, 8,20.00,30.00,Monday
8,7.144775550066724
2,2, 1, 2, 0, 8,30.00,40.00,Monday
8,7.129666357571258
2,2, 1, 2, 0, 8,40.00,50.00,Monday
8,7.280278324268745
2,2, 1, 2, 0, 8,50.00,60.00,Monday
8,7.600538236459734
2,2, 1, 2, 0, 8, 0.00,60.00,Monday
95,17.992255757841908
2,2, 1, 2, 0, 9, 0.00,10.00,Monday
8,7.898527062905198
2,2, 1, 2, 0, 9,10.00,20.00,Monday
8,8.113460108781162
2,2, 1, 2, 0, 9,20.00,30.00,Monday
8,8.046588580852684
2,2, 1, 2, 0, 9,30.00,40.00,Monday
8,8.633259545290928
2,2, 1, 2, 0, 9,40.00,50.00,Monday
8,8.770974727160683
2,2, 1, 2, 0, 9,50.00,60.00,Monday
8,9.262483163700857
2,2, 1, 2, 0, 9, 0.00,60.00,Monday
95,17.91961981705437
2,2, 1, 2, 0,10, 0.00,10.00,Monday
8,9.245315019579488
2,2, 1, 2, 0,10,10.00,20.00,Monday
8,9.154687664299475
2,2, 1, 2, 0,10,20.00,30.00,Monday
8,9.576562088404924
2,2, 1, 2, 0,10,30.00,40.00,Monday
8,9.787600573320246
2,2, 1, 2, 0,10,40.00,50.00,Monday
8,9.601571352910883
2,2, 1, 2, 0,10,50.00,60.00,Monday
8,9.568042763587723
2,2, 1, 2, 0,10, 0.00,60.00,Monday
95,17.83741055465174
2,2, 1, 2, 0,11, 0.00,10.00,Monday
8,9.509226263868982
2,2, 1, 2, 0,11,10.00,20.00,Monday
8,9.857063265207407
2,2, 1, 2, 0,11,20.00,30.00,Monday
8,10.526522667851557
2,2, 1, 2, 0,11,30.00,40.00,Monday
8,10.39792692803253
2,2, 1, 2, 0,11,40.00,50.00,Monday
8,10.308712438433574
2,2, 1, 2, 0,11,50.00,60.00,Monday
8,10.3816596522339
2,2, 1, 2, 0,11, 0.00,60.00,Monday
95,17.74520224574798
2,2, 1, 2, 0,12, 0.00,10.00,Monday
8,10.454026768607664
2,2, 1, 2, 0,12,10.00,20.00,Monday
8,11.152271249317084
2,2, 1, 2, 0,12,20.00,30.00,Monday
8,11.192312968752495
2,2, 1, 2, 0,12,30.00,40.00,Monday
8,11.405300917077712
2,2, 1, 2, 0,12,40.00,50.00,Monday
8,11.36810236477926
2,2, 1, 2, 0,12,50.00,60.00,Monday
8,11.606200357227153
2,2, 1, 2, 0,12, 0.00,60.00,Monday
95,17.648327454156328
2,2, 1, 2, 0,13, 0.00,10.00,Monday
8,11.4659384123207
2,2, 1, 2, 0,13,10.00,20.00,Monday
8,11.50649032036122
2,2, 1, 2, 0,13,20.00,30.00,Monday
8,11.652971105266332
2,2, 1, 2, 0,13,30.00,40.00,Monday
8,11.246091846265593
2,2, 1, 2, 0,13,40.00,50.00,Monday
8,11.45762672711882
2,2, 1, 2, 0,13,50.00,60.00,Monday
8,11.65469828053259
2,2, 1, 2, 0,13, 0.00,60.00,Monday
95,17.55448244189486
2,2, 1, 2, 0,14, 0.00,10.00,Monday
8,11.588096311805116
2,2, 1, 2, 0,14,10.00,20.00,Monday
8,11.30995268194101
2,2, 1, 2, 0,14,20.00,30.00,Monday
8,11.613498612240692
2,2, 1, 2, 0,14,30.00,40.00,Monday
8,11.631560562562582
2,2, 1, 2, 0,14,40.00,50.00,Monday
8,12.150955008850915
2,2, 1, 2, 0,14,50.00,60.00,Monday
8,11.862235741309057
2,2, 1, 2, 0,14, 0.00,60.00,Monday
95,17.470488038480128
2,2, 1, 2, 0,15, 0.00,10.00,Monday
8,11.58199178939986
2,2, 1, 2, 0,15,10.00,20.00,Monday
8,12.04595621506612
2,2, 1, 2, 0,15,20.00,30.00,Monday
8,11.462697994864616
2,2, 1, 2, 0,15,30.00,40.00,Monday
8,11.87512115500742
2,2, 1, 2, 0,15,40.00,50.00,Monday
8,11.821957931029177
2,2, 1, 2, 0,15,50.00,60.00,Monday
8,11.881198816088507
2,2, 1, 2, 0,15, 0.00,60.00,Monday
95,17.4021194353479
2,2, 1, 2, 0,16, 0.00,10.00,Monday
8,11.938914283025318
2,2, 1, 2, 0,16,10.00,20.00,Monday
8,11.93937404284735
2,2, 1, 2, 0,16,20.00,30.00,Monday
8,11.758414718989075
2,2, 1, 2, 0,16,30.00,40.00,Monday
8,11.994845246009787
2,2, 1, 2, 0,16,40.00,50.00,Monday
8,11.876266211340843
2,2, 1, 2, 0,16,50.00,60.00,Monday
8,11.933961246913706
2,2, 1, 2, 0,16, 0.00,60.00,Monday
95,17.35423100226753
2,2, 1, 2, 0,17, 0.00,10.00,Monday
8,12.050958909090438
2,2, 1, 2, 0,17,10.00,20.00,Monday
8,12.109802738399813
2,2, 1, 2, 0,17,20.00,30.00,Monday
8,12.109667321602429
2,2, 1, 2, 0,17,30.00,40.00,Monday
8,11.872518603392319
2,2, 1, 2, 0,17,40.00,50.00,Monday
8,12.054169499515173
2,2, 1, 2, 0,17,50.00,60.00,Monday
8,12.58210913727386
2,2, 1, 2, 0,17, 0.00,60.00,Monday
95,17.331245421718273
2,2, 1, 2, 0,18, 0.00,10.00,Monday
8,12.521929915028095
2,2, 1, 2, 0,18,10.00,20.00,Monday
8,12.474614202080933
2,2, 1, 2, 0,18,20.00,30.00,Monday
8,12.226754266492783
2,2, 1, 2, 0,18,30.00,40.00,Monday
8,12.414568089264238
2,2, 1, 2, 0,18,40.00,50.00,Monday
8,12.591559176795192
2,2, 1, 2, 0,18,50.00,60.00,Monday
8,12.47448200913602
2,2, 1, 2, 0,18, 0.00,60.00,Monday
95,17.33810734991273
2,2, 1, 2, 0,19, 0.00,10.00,Monday
8,12.293536918830279
2,2, 1, 2, 0,19,10.00,20.00,Monday
8,12.467610887473886
2,2, 1, 2, 0,19,20.00,30.00,Monday
8,12.57675654184218
2,2, 1, 2, 0,19,30.00,40.00,Monday
8,12.42557250937604
2,2, 1, 2, 0,19,40.00,50.00,Monday
8,12.456158278757887
2,2, 1, 2, 0,19,50.00,60.00,Monday
8,12.135194965391923
2,2, 1, 2, 0,19, 0.00,60.00,Monday
95,17.376059304413677
2,2, 1, 2, 0,20, 0.00,10.00,Monday
8,11.941721624293434
2,2, 1, 2, 0,20,10.00,20.00,Monday
8,11.770861659239408
2,2, 1, 2, 0,20,20.00,30.00,Monday
8,11.84067219499832
2,2, 1, 2, 0,20,30.00,40.00,Monday
8,11.432261678838332
2,2, 1, 2, 0,20,40.00,50.00,Monday
8,11.30850969236865
2,2, 1, 2, 0,20,50.00,60.00,Monday
8,11.029339984902894
2,2, 1, 2, 0,20, 0.00,60.00,Monday
95,17.443299653403316
2,2, 1, 2, 0,21, 0.00,10.00,Monday
8,10.959478909807903
2,2, 1, 2, 0,21,10.00,20.00,Monday
8,10.99794954070549
2,2, 1, 2, 0,21,20.00,30.00,Monday
8,10.927693654893659
2,2, 1, 2, 0,21,30.00,40.00,Monday
8,10.890001968548195
2,2, 1, 2, 0,21,40.00,50.00,Monday
8,10.962389658840241
2,2, 1, 2, 0,21,50.00,60.00,Monday
8,10.717408285584862
2,2, 1, 2, 0,21, 0.00,60.00,Monday
95,17.53351259481322
2,2, 1, 2, 0,22, 0.00,10.00,Monday
8,10.677477844145225
2,2, 1, 2, 0,22,10.00,20.00,Monday
8,10.704818919977024
2,2, 1, 2, 0,22,20.00,30.00,Monday
8,10.535122562118302
2,2, 1, 2, 0,22,30.00,40.00,Monday
8,10.606693666620459
2,2, 1, 2, 0,22,40.00,50.00,Monday
8,10.561633969394024
2,2, 1, 2, 0,22,50.00,60.00,Monday
8,10.43939678622806
2,2, 1, 2, 0,22, 0.00,60.00,Monday
95,17.638156971600464
2,2, 1, 2, 0,23, 0.00,10.00,Monday
8,10.36690552023526
2,2, 1, 2, 0,23,10.00,20.00,Monday
8,10.367291475998935
2,2, 1, 2, 0,23,20.00,30.00,Monday
8,10.3675083110639
2,2, 1, 2, 0,23,30.00,40.00,Monday
8,10.22244265881651
2,2, 1, 2, 0,23,40.00,50.00,Monday
8,10.347548376541536
2,2, 1, 2, 0,23,50.00,60.00,Monday
8,10.537757201142006
2,2, 1, 2, 0,23, 0.00,60.00,Monday
95,17.74546629672211
2,2, 1, 2, 0,24, 0.00,10.00,Monday
8,10.34829917196522
2,2, 1, 2, 0,24,10.00,20.00,Monday
8,10.223693993382386
2,2, 1, 2, 0,24,20.00,30.00,Monday
8,10.44112477984544
2,2, 1, 2, 0,24,30.00,40.00,Monday
8,10.295474461699693
2,2, 1, 2, 0,24,40.00,50.00,Monday
8,10.295518307090973
2,2, 1, 2, 0,24,50.00,60.00,Monday
8,10.150429986224787
2,2, 1, 2, 0,24, 0.00,60.00,Monday
95,17.8437507354716
3,2, 1, 2, 0,Monday
96,47.01605437625802,45.83120530073177, 4,30,48.138135600894738,17,50
2,3, 1, 3, 0, 1, 0.00,10.00,Tuesday
8,12.994335870397285
2,3, 1, 3, 0, 1,10.00,20.00,Tuesday
8,12.893461973229672
2,3, 1, 3, 0, 1,20.00,30.00,Tuesday
8,12.713304913943253
2,3, 1, 3, 0, 1,30.00,40.00,Tuesday
8,12.746849406708046
2,3, 1, 3, 0, 1,40.00,50.00,Tuesday
8,12.640222379157299
2,3, 1, 3, 0, 1,50.00,60.00,Tuesday
8,12.672737807285385
2,3, 1, 3, 0, 1, 0.00,60.00,Tuesday
95,17.926504256869185
2,3, 1, 3, 0, 2, 0.00,10.00,Tuesday
8,12.56701427064561
2,3, 1, 3, 0, 2,10.00,20.00,Tuesday
8,12.451805813363114
2,3, 1, 3, 0, 2,20.00,30.00,Tuesday
8,12.405237569676848
2,3, 1, 3, 0, 2,30.00,40.00,Tuesday
8,12.45205558484162
2,3, 1, 3, 0, 2,40.00,50.00,Tuesday
8,12.526093309259363
2,3, 1, 3, 0, 2,50.00,60.00,Tuesday
8,12.157626637071774
2,3, 1, 3, 0, 2, 0.00,60.00,Tuesday
95,17.991007624554784
2,3, 1, 3, 0, 3, 0.00,10.00,Tuesday
8,12.182063208923964
2,3, 1, 3, 0, 3,10.00,20.00,Tuesday
8,12.230839565699873
2,3, 1, 3, 0, 3,20.00,30.00,Tuesday
8,12.181981937335776
2,3, 1, 3, 0, 3,30.00,40.00,Tuesday
8,12.156671326578329
2,3, 1, 3, 0, 3,40.00,50.00,Tuesday
8,12.033249134407232
2,3, 1, 3, 0, 3,50.00,60.00,Tuesday
8,12.008102146696189
2,3, 1, 3, 0, 3, 0.00,60.00,Tuesday
95,18.03994551619822
2,3, 1, 3, 0, 4, 0.00,10.00,Tuesday
8,11.932009138782095
2,3, 1, 3, 0, 4,10.00,20.00,Tuesday
8,12.008026325275298
2,3, 1, 3, 0, 4,20.00,30.00,Tuesday
8,12.008102146696189
2,3, 1, 3, 0, 4,30.00,40.00,Tuesday
8,11.995517862326793
2,3, 1, 3, 0, 4,40.00,50.00,Tuesday
8,11.933250873696986
2,3, 1, 3, 0, 4,50.00,60.00,Tuesday
8,11.949107221933323
2,3, 1, 3, 0, 4, 0.00,60.00,Tuesday
95,18.079534640530455
2,3, 1, 3, 0, 5, 0.00,10.00,Tuesday
8,11.943229000902513
2,3, 1, 3, 0, 5,10.00,20.00,Tuesday
8,11.949536384452103
2,3, 1, 3, 0, 5,20.00,30.00,Tuesday
8,11.872909211345024
2,3, 1, 3, 0, 5,30.00,40.00,Tuesday
8,12.031016072224439
2,3, 1, 3, 0, 5,40.00,50.00,Tuesday
8,11.95351991624182
2,3, 1, 3, 0, 5,50.00,60.00,Tuesday
8,11.872518187035056
2,3, 1, 3, 0, 5, 0.00,60.00,Tuesday
95,18.115983450976449
2,3, 1, 3, 0, 6, 0.00,10.00,Tuesday
8,11.787375894593423
2,3, 1, 3, 0, 6,10.00,20.00,Tuesday
8,11.787570003398163
2,3, 1, 3, 0, 6,20.00,30.00,Tuesday
8,11.79471905408241
2,3, 1, 3, 0, 6,30.00,40.00,Tuesday
8,11.637333570292033
2,3, 1, 3, 0, 6,40.00,50.00,Tuesday
8,11.629960265665647
2,3, 1, 3, 0, 6,50.00,60.00,Tuesday
8,11.721523458963727
2,3, 1, 3, 0, 6, 0.00,60.00,Tuesday
95,18.15065333255716
2,3, 1, 3, 0, 7, 0.00,10.00,Tuesday
8,11.63905078257895
2,3, 1, 3, 0, 7,10.00,20.00,Tuesday
8,11.954052615710609
2,3, 1, 3, 0, 7,20.00,30.00,Tuesday
8,12.190265511430696
2,3, 1, 3, 0, 7,30.00,40.00,Tuesday
8,12.503063550981617
2,3, 1, 3, 0, 7,40.00,50.00,Tuesday
8,12.192688817985
2,3, 1, 3, 0, 7,50.00,60.00,Tuesday
8,12.112943097569377
2,3, 1, 3, 0, 7, 0.00,60.00,Tuesday
95,18.181805631774535
2,3, 1, 3, 0, 8, 0.00,10.00,Tuesday
8,12.346025866713854
2,3, 1, 3, 0, 8,10.00,20.00,Tuesday
8,12.419282293099505
2,3, 1, 3, 0, 8,20.00,30.00,Tuesday
8,12.571288637032302
2,3, 1, 3, 0, 8,30.00,40.00,Tuesday
8,12.738772384716354
2,3, 1, 3, 0, 8,40.00,50.00,Tuesday
8,12.82224653347226
2,3, 1, 3, 0, 8,50.00,60.00,Tuesday
8,13.137631567036897
2,3, 1, 3, 0, 8, 0.00,60.00,Tuesday
95,18.206414875986089
2,3, 1, 3, 0, 9, 0.00,10.00,Tuesday
8,13.114437319285344
2,3, 1, 3, 0, 9,10.00,20.00,Tuesday
8,13.436018981646848
2,3, 1, 3, 0, 9,20.00,30.00,Tuesday
8,13.731466508041779
2,3, 1, 3, 0, 9,30.00,40.00,Tuesday
8,13.747388956613062
2,3, 1, 3, 0, 9,40.00,50.00,Tuesday
8,14.040752958787583
2,3, 1, 3, 0, 9,50.00,60.00,Tuesday
8,14.249828621044223
2,3, 1, 3, 0, 9, 0.00,60.00,Tuesday
95,18.22248506354116
2,3, 1, 3, 0,10, 0.00,10.00,Tuesday
8,14.195271155634215
2,3, 1, 3, 0,10,10.00,20.00,Tuesday
8,14.195556300505296
2,3, 1, 3, 0,10,20.00,30.00,Tuesday
8,14.041396490064649
2,3, 1, 3, 0,10,30.00,40.00,Tuesday
8,14.300333497593356
2,3, 1, 3, 0,10,40.00,50.00,Tuesday
8,14.073173436271066
2,3, 1, 3, 0,10,50.00,60.00,Tuesday
8,14.313538859603126
2,3, 1, 3, 0,10, 0.00,60.00,Tuesday
95,18.230081484657587
2,3, 1, 3, 0,11, 0.00,10.00,Tuesday
8,14.349944915353016
2,3, 1, 3, 0,11,10.00,20.00,Tuesday
8,14.455084101776979
2,3, 1, 3, 0,11,20.00,30.00,Tuesday
8,14.573056781355318
2,3, 1, 3, 0,11,30.00,40.00,Tuesday
8,14.498534100778265
2,3, 1, 3, 0,11,40.00,50.00,Tuesday
8,14.795173596781869
2,3, 1, 3, 0,11,50.00,60.00,Tuesday
8,14.845663546750372
2,3, 1, 3, 0,11, 0.00,60.00,Tuesday
95,18.23244739818937
2,3, 1, 3, 0,12, 0.00,10.00,Tuesday
8,14.91773526247361
2,3, 1, 3, 0,12,10.00,20.00,Tuesday
8,14.698761581744753
2,3, 1, 3, 0,12,20.00,30.00,Tuesday
8,14.934003273058519
2,3, 1, 3, 0,12,30.00,40.00,Tuesday
8,15.150591740834756
2,3, 1, 3, 0,12,40.00,50.00,Tuesday
8,15.294434328013774
2,3, 1, 3, 0,12,50.00,60.00,Tuesday
8,15.29391229876957
2,3, 1, 3, 0,12, 0.00,60.00,Tuesday
95,18.235111869605043
2,3, 1, 3, 0,13, 0.00,10.00,Tuesday
8,15.0141150314525
2,3, 1, 3, 0,13,10.00,20.00,Tuesday
8,15.657251828579291
2,3, 1, 3, 0,13,20.00,30.00,Tuesday
8,15.372135776157597
2,3, 1, 3, 0,13,30.00,40.00,Tuesday
8,15.36636503074789
2,3, 1, 3, 0,13,40.00,50.00,Tuesday
8,15.494668625073814
2,3, 1, 3, 0,13,50.00,60.00,Tuesday
8,15.434527635008762
2,3, 1, 3, 0,13, 0.00,60.00,Tuesday
95,18.244323685141926
2,3, 1, 3, 0,14, 0.00,10.00,Tuesday
8,15.611905762718222
2,3, 1, 3, 0,14,10.00,20.00,Tuesday
8,15.858344651591418
2,3, 1, 3, 0,14,20.00,30.00,Tuesday
8,15.610125024590229
2,3, 1, 3, 0,14,30.00,40.00,Tuesday
8,15.47116171913737
2,3, 1, 3, 0,14,40.00,50.00,Tuesday
8,15.886915854434477
2,3, 1, 3, 0,14,50.00,60.00,Tuesday
8,15.717833314060446
2,3, 1, 3, 0,14, 0.00,60.00,Tuesday
95,18.267337001269366
2,3, 1, 3, 0,15, 0.00,10.00,Tuesday
8,15.580005712926969
2,3, 1, 3, 0,15,10.00,20.00,Tuesday
8,15.724678133287523
2,3, 1, 3, 0,15,20.00,30.00,Tuesday
8,15.921581166266228
2,3, 1, 3, 0,15,30.00,40.00,Tuesday
8,15.747495622046456
2,3, 1, 3, 0,15,40.00,50.00,Tuesday
8,15.459018513342164
2,3, 1, 3, 0,15,50.00,60.00,Tuesday
8,15.504089368213754
2,3, 1, 3, 0,15, 0.00,60.00,Tuesday
95,18.308860507460229
2,3, 1, 3, 0,16, 0.00,10.00,Tuesday
8,15.533548050774956
2,3, 1, 3, 0,16,10.00,20.00,Tuesday
8,15.470656648506747
2,3, 1, 3, 0,16,20.00,30.00,Tuesday
8,15.341842932915105
2,3, 1, 3, 0,16,30.00,40.00,Tuesday
8,15.725525689244643
2,3, 1, 3, 0,16,40.00,50.00,Tuesday
8,15.531922012637635
2,3, 1, 3, 0,16,50.00,60.00,Tuesday
8,15.459624775687756
2,3, 1, 3, 0,16, 0.00,60.00,Tuesday
95,18.372711634449748
2,3, 1, 3, 0,17, 0.00,10.00,Tuesday
8,15.379939773990675
2,3, 1, 3, 0,17,10.00,20.00,Tuesday
8,15.067451363432627
2,3, 1, 3, 0,17,20.00,30.00,Tuesday
8,14.923255513554363
2,3, 1, 3, 0,17,30.00,40.00,Tuesday
8,14.799721414557615
2,3, 1, 3, 0,17,40.00,50.00,Tuesday
8,15.253411492958863
2,3, 1, 3, 0,17,50.00,60.00,Tuesday
8,15.290010708153922
2,3, 1, 3, 0,17, 0.00,60.00,Tuesday
95,18.4608117851249
2,3, 1, 3, 0,18, 0.00,10.00,Tuesday
8,15.535440440182736
2,3, 1, 3, 0,18,10.00,20.00,Tuesday
8,15.134110677943454
2,3, 1, 3, 0,18,20.00,30.00,Tuesday
8,14.982873609426948
2,3, 1, 3, 0,18,30.00,40.00,Tuesday
8,14.831246536911637
2,3, 1, 3, 0,18,40.00,50.00,Tuesday
8,14.732753926918165
2,3, 1, 3, 0,18,50.00,60.00,Tuesday
8,14.83157140557202
2,3, 1, 3, 0,18, 0.00,60.00,Tuesday
95,18.573553004374067
2,3, 1, 3, 0,19, 0.00,10.00,Tuesday
8,14.860669466000589
2,3, 1, 3, 0,19,10.00,20.00,Tuesday
8,14.650495863645283
2,3, 1, 3, 0,19,20.00,30.00,Tuesday
8,14.738007171637167
2,3, 1, 3, 0,19,30.00,40.00,Tuesday
8,14.63012783675036
2,3, 1, 3, 0,19,40.00,50.00,Tuesday
8,14.506110972478738
2,3, 1, 3, 0,19,50.00,60.00,Tuesday
8,14.63626489718394
2,3, 1, 3, 0,19, 0.00,60.00,Tuesday
95,18.709384568663034
2,3, 1, 3, 0,20, 0.00,10.00,Tuesday
8,14.69743337880093
2,3, 1, 3, 0,20,10.00,20.00,Tuesday
8,14.504385493716871
2,3, 1, 3, 0,20,20.00,30.00,Tuesday
8,14.555562876493097
2,3, 1, 3, 0,20,30.00,40.00,Tuesday
8,14.491178897559712
2,3, 1, 3, 0,20,40.00,50.00,Tuesday
8,14.301843591010125
2,3, 1, 3, 0,20,50.00,60.00,Tuesday
8,14.291492859032389
2,3, 1, 3, 0,20, 0.00,60.00,Tuesday
95,18.866336729367757
2,3, 1, 3, 0,21, 0.00,10.00,Tuesday
8,14.291688921688792
2,3, 1, 3, 0,21,10.00,20.00,Tuesday
8,14.156029053841057
2,3, 1, 3, 0,21,20.00,30.00,Tuesday
8,14.300530994681079
2,3, 1, 3, 0,21,30.00,40.00,Tuesday
8,14.021893229892516
2,3, 1, 3, 0,21,40.00,50.00,Tuesday
8,14.092887105602863
2,3, 1, 3, 0,21,50.00,60.00,Tuesday
8,14.021547014062481
2,3, 1, 3, 0,21, 0.00,60.00,Tuesday
95,19.041013942838533
2,3, 1, 3, 0,22, 0.00,10.00,Tuesday
8,14.02464933103621
2,3, 1, 3, 0,22,10.00,20.00,Tuesday
8,13.885751485623498
2,3, 1, 3, 0,22,20.00,30.00,Tuesday
8,13.88613817451912
2,3, 1, 3, 0,22,30.00,40.00,Tuesday
8,13.953099702320588
2,3, 1, 3, 0,22,40.00,50.00,Tuesday
8,13.873015674603288
2,3, 1, 3, 0,22,50.00,60.00,Tuesday
8,13.873657260224148
2,3, 1, 3, 0,22, 0.00,60.00,Tuesday
95,19.224773918791369
2,3, 1, 3, 0,23, 0.00,10.00,Tuesday
8,13.858974091509122
2,3, 1, 3, 0,23,10.00,20.00,Tuesday
8,13.519379191593478
2,3, 1, 3, 0,23,20.00,30.00,Tuesday
8,13.448905655694749
2,3, 1, 3, 0,23,30.00,40.00,Tuesday
8,13.520573799896069
2,3, 1, 3, 0,23,40.00,50.00,Tuesday
8,13.859912456829543
2,3, 1, 3, 0,23,50.00,60.00,Tuesday
8,13.621602381957736
2,3, 1, 3, 0,23, 0.00,60.00,Tuesday
95,19.408911403794265
2,3, 1, 3, 0,24, 0.00,10.00,Tuesday
8,13.487012930230597
2,3, 1, 3, 0,24,10.00,20.00,Tuesday
8,13.302571848333385
2,3, 1, 3, 0,24,20.00,30.00,Tuesday
8,13.622737792890228
2,3, 1, 3, 0,24,30.00,40.00,Tuesday
8,13.623871919644472
2,3, 1, 3, 0,24,40.00,50.00,Tuesday
8,13.551843265174409
2,3, 1, 3, 0,24,50.00,60.00,Tuesday
8,13.822305675742678
2,3, 1, 3, 0,24, 0.00,60.00,Tuesday
95,19.58517654127533
3,3, 1, 3, 0,Tuesday
96,44.915841477113627,41.678282881855029,24,60,46.43737125221569, 1,10
2,4, 1, 4, 0, 1, 0.00,10.00,Wednesday
8,13.822305675742678
2,4, 1, 4, 0, 1,10.00,20.00,Wednesday
8,13.822265619686768
2,4, 1, 4, 0, 1,20.00,30.00,Wednesday
8,13.822225741960818
2,4, 1, 4, 0, 1,30.00,40.00,Wednesday
8,13.822185586556629
2,4, 1, 4, 0, 1,40.00,50.00,Wednesday
8,13.822142452000426
2,4, 1, 4, 0, 1,50.00,60.00,Wednesday
8,13.896291962630919
2,4, 1, 4, 0, 1, 0.00,60.00,Wednesday
95,19.746513772873639