Program Version,EnergyPlus, Version 9.5.0-de239b2e5f, YMD=2021.12.09 19:12
1,5,Environment Title[],Latitude[deg],Longitude[deg],Time Zone[],Elevation[m]
2,8,Day of Simulation[],Month[],Day of Month[],DST Indicator[1=yes 0=no],Hour[],StartMinute[],EndMinute[],DayType
3,5,Cumulative Day of Simulation[],Month[],Day of Month[],DST Indicator[1=yes 0=no],DayType  ! When Daily Report Variables Requested
4,2,Cumulative Days of Simulation[],Month[]  ! When Monthly Report Variables Requested
5,1,Cumulative Days of Simulation[] ! When Run Period Report Variables Requested
6,1,Calendar Year of Simulation[] ! When Annual Report Variables Requested
148,1,THERMAL ZONE: JORGE,Zone Mean Air Temperature [C] !TimeStep
596,1,JORGE,Zone Thermal Comfort Fanger Model PMV [] !TimeStep
597,1,JORGE,Zone Thermal Comfort Fanger Model PPD [%] !TimeStep
End of Data Dictionary
1,RUN PERIOD 1,  18.85, -99.14,  -6.00,1280.00
2,1, 5, 3, 0, 1, 0.00,10.00,Wednesday
148,26.40245655733431
596,-1.0714787200906642
597,29.224087990162674
2,1, 5, 3, 0, 1,10.00,20.00,Wednesday
148,26.369105062537206
596,-1.0929407831501524
597,30.192050308439307
2,1, 5, 3, 0, 1,20.00,30.00,Wednesday
148,26.396223162358504
596,-1.0915586696723106
597,30.1292341915004
2,1, 5, 3, 0, 1,30.00,40.00,Wednesday
148,26.37023302641502
596,-1.111379312772152
597,31.036299567776724
2,1, 5, 3, 0, 1,40.00,50.00,Wednesday
148,26.25801850769076
596,-1.1559300473719432
597,33.12258346372562
2,1, 5, 3, 0, 1,50.00,60.00,Wednesday
148,26.05714578594955
596,-1.2274574768169187
597,36.599968522705
2,1, 5, 3, 0, 2, 0.00,10.00,Wednesday
148,25.89254207852684
596,-1.2909587022804477
597,39.804249352879569
2,1, 5, 3, 0, 2,10.00,20.00,Wednesday
148,25.780577513118936
596,-1.3398858123774725
597,42.337189042232399
2,1, 5, 3, 0, 2,20.00,30.00,Wednesday
148,25.53868645330354
596,-1.4269116564173597
597,46.951135031946119
2,1, 5, 3, 0, 2,30.00,40.00,Wednesday
148,25.40780652271149
596,-1.4806326096853102
597,49.84925297432828
2,1, 5, 3, 0, 2,40.00,50.00,Wednesday
148,25.36973425941824
596,-1.5048822725415772
597,51.16541685913908
2,1, 5, 3, 0, 2,50.00,60.00,Wednesday
148,25.422978355820946
596,-1.503430166838734
597,51.0865022273074
2,1, 5, 3, 0, 3, 0.00,10.00,Wednesday
148,25.44895912877405
596,-1.5098188947465785
597,51.433779205379519
2,1, 5, 3, 0, 3,10.00,20.00,Wednesday
148,25.589491491156254
596,-1.4803239443069283
597,49.832525760087829
2,1, 5, 3, 0, 3,20.00,30.00,Wednesday
148,25.69227089877371
596,-1.4595777426583959
597,48.71003228718777
2,1, 5, 3, 0, 3,30.00,40.00,Wednesday
148,25.62741830592818
596,-1.4925641739508307
597,50.496373152274518
2,1, 5, 3, 0, 3,40.00,50.00,Wednesday
148,25.564728171970413
596,-1.521520893099878
597,52.07036778733743
2,1, 5, 3, 0, 3,50.00,60.00,Wednesday
148,25.504563010399118
596,-1.5546104282187719
597,53.87270360115045
2,1, 5, 3, 0, 4, 0.00,10.00,Wednesday
148,25.447175504486933
596,-1.5850666380335257
597,55.532240951969949
2,1, 5, 3, 0, 4,10.00,20.00,Wednesday
148,25.337785573265806
596,-1.6282679920922963
597,57.881786577774018
2,1, 5, 3, 0, 4,20.00,30.00,Wednesday
148,25.31404922898571
596,-1.652997425466819
597,59.221644901242679
2,1, 5, 3, 0, 4,30.00,40.00,Wednesday
148,25.024446820704875
596,-1.7565900305389555
597,64.75638665254081
2,1, 5, 3, 0, 4,40.00,50.00,Wednesday
148,24.637508407477374
596,-1.89945451410051
597,72.02685957405825
2,1, 5, 3, 0, 4,50.00,60.00,Wednesday
148,24.475814215158203
596,-1.9676495967341675
597,75.27924893204224
2,1, 5, 3, 0, 5, 0.00,10.00,Wednesday
148,24.407415865804646
596,-2.007748487117208
597,77.11073618819431
2,1, 5, 3, 0, 5,10.00,20.00,Wednesday
148,24.591264071309117
596,-1.9665149873593746
597,75.2265149992337
2,1, 5, 3, 0, 5,20.00,30.00,Wednesday
148,24.754780601750796
596,-1.9222834553744959
597,73.13378415969717
2,1, 5, 3, 0, 5,30.00,40.00,Wednesday
148,24.866213607856865
596,-1.8986995955897857
597,71.9899598347992
2,1, 5, 3, 0, 5,40.00,50.00,Wednesday
148,24.789285855863278
596,-1.9269791894903519
597,73.35927459257684
2,1, 5, 3, 0, 5,50.00,60.00,Wednesday
148,24.533246612066578
596,-2.0230606413565
597,77.7930129917737
2,1, 5, 3, 0, 6, 0.00,10.00,Wednesday
148,24.319740418318749
596,-2.1005973849752199
597,81.09258853367673
2,1, 5, 3, 0, 6,10.00,20.00,Wednesday
148,24.106847989942929
596,-2.1929041274375655
597,84.65702747446893
2,1, 5, 3, 0, 6,20.00,30.00,Wednesday
148,24.061392683358848
596,-2.2188437718609337
597,85.58343649014873
2,1, 5, 3, 0, 6,30.00,40.00,Wednesday
148,23.88693072641183
596,-2.296882235717502
597,88.16478616112774
2,1, 5, 3, 0, 6,40.00,50.00,Wednesday
148,23.708969179593028
596,-2.364600270130894
597,90.15192474493596
2,1, 5, 3, 0, 6,50.00,60.00,Wednesday
148,23.58679964750867
596,-2.419150795968607
597,91.58274655925945
2,1, 5, 3, 0, 7, 0.00,10.00,Wednesday
148,23.634384220225628
596,-2.415057078243592
597,91.48057121487897
2,1, 5, 3, 0, 7,10.00,20.00,Wednesday
148,23.815588243298657
596,-2.3638812843262717
597,90.13205940858774
2,1, 5, 3, 0, 7,20.00,30.00,Wednesday
148,23.892481799935397
596,-2.3522797395607135
597,89.80786612376521
2,1, 5, 3, 0, 7,30.00,40.00,Wednesday
148,23.550898544294499
596,-2.473079160799588
597,92.85137628766585
2,1, 5, 3, 0, 7,40.00,50.00,Wednesday
148,23.37948705350511
596,-2.536488169268859
597,94.16405400420818
2,1, 5, 3, 0, 7,50.00,60.00,Wednesday
148,23.770497256605883
596,-2.41021091136824
597,91.35853186234844
2,1, 5, 3, 0, 8, 0.00,10.00,Wednesday
148,23.98551027186656
596,-2.336973727748592
597,89.36962763484837
2,1, 5, 3, 0, 8,10.00,20.00,Wednesday
148,23.74373578281473
596,-2.414191523046914
597,91.45886047919596
2,1, 5, 3, 0, 8,20.00,30.00,Wednesday
148,23.797160274829733
596,-2.38897426704433
597,90.80981926127805
2,1, 5, 3, 0, 8,30.00,40.00,Wednesday
148,23.94155652747826
596,-2.3319067647907989
597,89.22190762129779
2,1, 5, 3, 0, 8,40.00,50.00,Wednesday
148,24.164111271769735
596,-2.244164818187877
597,86.45503307035455
2,1, 5, 3, 0, 8,50.00,60.00,Wednesday
148,24.42165934682304
596,-2.1432705826985809
597,82.79147498927327
2,1, 5, 3, 0, 9, 0.00,10.00,Wednesday
148,24.93249506631672
596,-1.9549354922994778
597,74.68555467454988
2,1, 5, 3, 0, 9,10.00,20.00,Wednesday
148,25.200824853939396
596,-1.8609287376199113
597,70.1208785620141
2,1, 5, 3, 0, 9,20.00,30.00,Wednesday
148,25.286310844796373
596,-1.8213950269915716
597,68.12003251511588
2,1, 5, 3, 0, 9,30.00,40.00,Wednesday
148,25.327280678001999
596,-1.792024363942861
597,66.60734332867453
2,1, 5, 3, 0, 9,40.00,50.00,Wednesday
148,25.405868889975428
596,-1.7451553619195588
597,64.15367852375619
2,1, 5, 3, 0, 9,50.00,60.00,Wednesday
148,25.508089557636848
596,-1.6937578185645104
597,61.41719766182178
2,1, 5, 3, 0,10, 0.00,10.00,Wednesday
148,27.7371447292371
596,0.08902503164272331
597,5.164119061233649
2,1, 5, 3, 0,10,10.00,20.00,Wednesday
148,28.018963020444
596,0.202545777880471
597,5.850762407128954
2,1, 5, 3, 0,10,20.00,30.00,Wednesday
148,28.327750857780587
596,0.28194334145595759
597,6.651136173688528
2,1, 5, 3, 0,10,30.00,40.00,Wednesday
148,28.826970818036537
596,0.42286000387644986
597,8.728187647907774
2,1, 5, 3, 0,10,40.00,50.00,Wednesday
148,28.96553173749704
596,0.48906778723984298
597,9.997296516663966
2,1, 5, 3, 0,10,50.00,60.00,Wednesday
148,28.921964547837356
596,0.5034326220685044
597,10.297594352976546
2,1, 5, 3, 0,11, 0.00,10.00,Wednesday
148,28.85633327862299
596,0.49493031370846876
597,10.118776467796679
2,1, 5, 3, 0,11,10.00,20.00,Wednesday
148,29.07356668672465
596,0.5641736031685163
597,11.66607970849995
2,1, 5, 3, 0,11,20.00,30.00,Wednesday
148,29.315571785592185
596,0.6442505511022474
597,13.714700215090119
2,1, 5, 3, 0,11,30.00,40.00,Wednesday
148,29.44007186025962
596,0.6961567387372065
597,15.191150320960759
2,1, 5, 3, 0,11,40.00,50.00,Wednesday
148,29.509642155585728
596,0.7313060217586814
597,16.25706029849266
2,1, 5, 3, 0,11,50.00,60.00,Wednesday
148,29.61415247971771
596,0.7721028481986512
597,17.560781792559696
2,1, 5, 3, 0,12, 0.00,10.00,Wednesday
148,29.776166797198678
596,0.8298193346264133
597,19.52617317021827
2,1, 5, 3, 0,12,10.00,20.00,Wednesday
148,29.870725407439964
596,0.8610815541206335
597,20.649176866955373
2,1, 5, 3, 0,12,20.00,30.00,Wednesday
148,30.09466832521941
596,0.9379484184901097
597,23.58116088004354
2,1, 5, 3, 0,12,30.00,40.00,Wednesday
148,30.21763562285137
596,0.981465789235587
597,25.34579903638459
2,1, 5, 3, 0,12,40.00,50.00,Wednesday
148,30.411347322751579
596,1.0473415961842312
597,28.154906879342847
2,1, 5, 3, 0,12,50.00,60.00,Wednesday
148,30.58795984051067
596,1.1080647317020942
597,30.88368568944533
2,1, 5, 3, 0,13, 0.00,10.00,Wednesday
148,30.80037935999985
596,1.182397372127898
597,34.391732212019508
2,1, 5, 3, 0,13,10.00,20.00,Wednesday
148,30.922334829546594
596,1.2261492122082616
597,36.535049895739408
2,1, 5, 3, 0,13,20.00,30.00,Wednesday
148,31.00241105368423
596,1.2680593652470205
597,38.6371461256437
2,1, 5, 3, 0,13,30.00,40.00,Wednesday
148,31.075456526864586
596,1.2804973979628083
597,39.269525444422388
2,1, 5, 3, 0,13,40.00,50.00,Wednesday
148,31.19515753629375
596,1.2976965462458248
597,40.149987626193958
2,1, 5, 3, 0,13,50.00,60.00,Wednesday
148,31.27704412380101
596,1.3272120695396197
597,41.676264984933549
2,1, 5, 3, 0,14, 0.00,10.00,Wednesday
148,31.295472791830084
596,1.3696804145743078
597,43.90293943416697
2,1, 5, 3, 0,14,10.00,20.00,Wednesday
148,31.43629437160185
596,1.443651359725991
597,47.85103173495731
2,1, 5, 3, 0,14,20.00,30.00,Wednesday
148,31.584472736977735
596,1.4967658140799809
597,50.7244794487629
2,1, 5, 3, 0,14,30.00,40.00,Wednesday
148,31.671915835354257
596,1.5327842610623479
597,52.68357957779751
2,1, 5, 3, 0,14,40.00,50.00,Wednesday
148,31.89695314280945
596,1.596021417589184
597,56.128761857451618
2,1, 5, 3, 0,14,50.00,60.00,Wednesday
148,32.232596074600028
596,1.668320191532135
597,60.04914288710226
2,1, 5, 3, 0,15, 0.00,10.00,Wednesday
148,31.9721592370847
596,1.5922085300305209
597,55.921179127558797
2,1, 5, 3, 0,15,10.00,20.00,Wednesday
148,31.993793490235406
596,1.623573384995783
597,57.626924205436058
2,1, 5, 3, 0,15,20.00,30.00,Wednesday
148,32.20610116173139
596,1.7035865072650716
597,61.943597944139437
2,1, 5, 3, 0,15,30.00,40.00,Wednesday
148,32.32883838949864
596,1.7603323257563149
597,64.95309519976142
2,1, 5, 3, 0,15,40.00,50.00,Wednesday
148,32.416585805851287
596,1.7796050983123709
597,65.9616488658641
2,1, 5, 3, 0,15,50.00,60.00,Wednesday
148,32.53454635906271
596,1.824254087235057
597,68.26614299588101
2,1, 5, 3, 0,16, 0.00,10.00,Wednesday
148,32.63846322857114
596,1.8763194534373118
597,70.88778380213179
2,1, 5, 3, 0,16,10.00,20.00,Wednesday
148,32.733896313152978
596,1.9072981704214783
597,72.40914547243884
2,1, 5, 3, 0,16,20.00,30.00,Wednesday
148,32.748786187724217
596,1.9009803881582633
597,72.10138621990858
2,1, 5, 3, 0,16,30.00,40.00,Wednesday
148,32.782228998023359
596,1.9204062300439449
597,73.0434261622989
2,1, 5, 3, 0,16,40.00,50.00,Wednesday
148,32.88794118959276
596,1.925883423641569
597,73.30672404652208
2,1, 5, 3, 0,16,50.00,60.00,Wednesday
148,32.72236085929261
596,1.870434995004359
597,70.59540421161802
2,1, 5, 3, 0,17, 0.00,10.00,Wednesday
148,32.544634537296889
596,1.833776695745409
597,68.75125334721744
2,1, 5, 3, 0,17,10.00,20.00,Wednesday
148,32.3435677640272
596,1.7676983532657194
597,65.3394671896747
2,1, 5, 3, 0,17,20.00,30.00,Wednesday
148,32.037503445923977
596,1.662316035425668
597,59.72516941347046
2,1, 5, 3, 0,17,30.00,40.00,Wednesday
148,31.83013807923745
596,1.5873267148444737
597,55.65533665951765
2,1, 5, 3, 0,17,40.00,50.00,Wednesday
148,31.772543443881717
596,1.5574164008405674
597,54.025618385952807
2,1, 5, 3, 0,17,50.00,60.00,Wednesday
148,31.82536177813715
596,1.5771504907720624
597,55.100997148204687
2,1, 5, 3, 0,18, 0.00,10.00,Wednesday
148,31.733164768867224
596,1.5518234558362228
597,53.72082874077281
2,1, 5, 3, 0,18,10.00,20.00,Wednesday
148,31.62798857049804
596,1.5316471529824479
597,52.62165436163674
2,1, 5, 3, 0,18,20.00,30.00,Wednesday
148,31.63038811397921
596,1.543370282368047
597,53.26022544382242
2,1, 5, 3, 0,18,30.00,40.00,Wednesday
148,31.67337972895207
596,1.5624210465343527
597,54.29835702853111
2,1, 5, 3, 0,18,40.00,50.00,Wednesday
148,31.755245953646278
596,1.5912151988635224
597,55.86709221228499
2,1, 5, 3, 0,18,50.00,60.00,Wednesday
148,31.89188200987628
596,1.6322432032897017
597,58.09747995494042
2,1, 5, 3, 0,19, 0.00,10.00,Wednesday
148,30.32731160070457
596,0.6288057479947552
597,13.297915452254359
2,1, 5, 3, 0,19,10.00,20.00,Wednesday
148,29.93518978352124
596,0.4942605974513446
597,10.104823893620548
2,1, 5, 3, 0,19,20.00,30.00,Wednesday
148,29.73315379183412
596,0.4201096574473991
597,8.679543916521851
2,1, 5, 3, 0,19,30.00,40.00,Wednesday
148,29.260221903028886
596,0.29038871281544567
597,6.751878178640553
2,1, 5, 3, 0,19,40.00,50.00,Wednesday
148,28.993468223833064
596,0.19926096469682687
597,5.823344963491095
2,1, 5, 3, 0,19,50.00,60.00,Wednesday
148,28.920715989206966
596,0.14339608810711339
597,5.426041371496069
2,1, 5, 3, 0,20, 0.00,10.00,Wednesday
148,28.906238085469885
596,0.1171472071216355
597,5.284256438061433
2,1, 5, 3, 0,20,10.00,20.00,Wednesday
148,28.84205918722114
596,0.08237004899300951
597,5.140491916606251
2,1, 5, 3, 0,20,20.00,30.00,Wednesday
148,28.675120181529239
596,0.025098818201086068
597,5.013040662888486
2,1, 5, 3, 0,20,30.00,40.00,Wednesday
148,28.512157061231087
596,-0.027863720261940805
597,5.016072157517456
2,1, 5, 3, 0,20,40.00,50.00,Wednesday
148,28.24812336657551
596,-0.10752406577914242
597,5.239450767177587
2,1, 5, 3, 0,20,50.00,60.00,Wednesday
148,28.113103054537399
596,-0.16549178511927266
597,5.567622292875143
2,1, 5, 3, 0,21, 0.00,10.00,Wednesday
148,27.95423891817603
596,-0.22604587468093619
597,6.0600855588782569
2,1, 5, 3, 0,21,10.00,20.00,Wednesday
148,27.8083334894976
596,-0.28328916927588757
597,6.666988478177686
2,1, 5, 3, 0,21,20.00,30.00,Wednesday
148,27.564449056981645
596,-0.36947741185229807
597,7.841886777886728
2,1, 5, 3, 0,21,30.00,40.00,Wednesday
148,27.160911940388357
596,-0.48649594226227479
597,9.944472490418207
2,1, 5, 3, 0,21,40.00,50.00,Wednesday
148,27.260292119040085
596,-0.4822628337042736
597,9.858148837449562
2,1, 5, 3, 0,21,50.00,60.00,Wednesday
148,27.1589014280893
596,-0.5269471327120906
597,10.8084201734967
2,1, 5, 3, 0,22, 0.00,10.00,Wednesday
148,27.167450337531855
596,-0.5371057200545647
597,11.036506238128709
2,1, 5, 3, 0,22,10.00,20.00,Wednesday
148,27.112352418300337
596,-0.5617054582254829
597,11.607356835956339
2,1, 5, 3, 0,22,20.00,30.00,Wednesday
148,26.88605351241941
596,-0.6556445426444086
597,14.02880250162022
2,1, 5, 3, 0,22,30.00,40.00,Wednesday
148,26.784449449338646
596,-0.7072181206581005
597,15.520846647391025
2,1, 5, 3, 0,22,40.00,50.00,Wednesday
148,26.860607603614097
596,-0.6990556260440574
597,15.277044063988769
2,1, 5, 3, 0,22,50.00,60.00,Wednesday
148,26.8442406203583
596,-0.7183871340655835
597,15.859105543087935
2,1, 5, 3, 0,23, 0.00,10.00,Wednesday
148,27.015986287257733
596,-0.6890501073537306
597,14.982117262547448
2,1, 5, 3, 0,23,10.00,20.00,Wednesday
148,26.96544534820928
596,-0.7081532447295558
597,15.548961052506627
2,1, 5, 3, 0,23,20.00,30.00,Wednesday
148,26.8927191036556
596,-0.7452987784929009
597,16.6961862323012
2,1, 5, 3, 0,23,30.00,40.00,Wednesday
148,27.018966495621436
596,-0.7338365085654482
597,16.335850266124767
2,1, 5, 3, 0,23,40.00,50.00,Wednesday
148,27.059817434382649
596,-0.7344851453750277
597,16.356090708452883
2,1, 5, 3, 0,23,50.00,60.00,Wednesday
148,26.992473502251813
596,-0.762299811501375
597,17.241011790133585
2,1, 5, 3, 0,24, 0.00,10.00,Wednesday
148,27.002383005388749
596,-0.772744462215831
597,17.581853848110045
2,1, 5, 3, 0,24,10.00,20.00,Wednesday
148,27.02513557555628
596,-0.7820401701804342
597,17.889113129279779
2,1, 5, 3, 0,24,20.00,30.00,Wednesday
148,26.927970943285417
596,-0.8224647515689864
597,19.267914914554568
2,1, 5, 3, 0,24,30.00,40.00,Wednesday
148,26.86423489551102
596,-0.85272757497607
597,20.34510180157696
2,1, 5, 3, 0,24,40.00,50.00,Wednesday
148,26.731671527841269
596,-0.9050835619475716
597,22.298226024066879
2,1, 5, 3, 0,24,50.00,60.00,Wednesday
148,26.670328880331135
596,-0.9358682679998281
597,23.498677209067624
2,2, 5, 4, 0, 1, 0.00,10.00,Thursday
148,26.84544253875677
596,-0.9016527193774107
597,22.166806175411837
2,2, 5, 4, 0, 1,10.00,20.00,Thursday
148,26.938048683191107
596,-0.8902070109338506
597,21.731834661848454
2,2, 5, 4, 0, 1,20.00,30.00,Thursday
148,26.814278655122739
596,-0.9346185407242821
597,23.44920486991218
2,2, 5, 4, 0, 1,30.00,40.00,Thursday
148,26.577405084928555
596,-1.0154066975963885
597,26.772843789262767
2,2, 5, 4, 0, 1,40.00,50.00,Thursday
148,26.52140630386695
596,-1.0404894245822516
597,27.855205885819446
2,2, 5, 4, 0, 1,50.00,60.00,Thursday
148,26.577938845810885
596,-1.0349809280309699
597,27.615516782158595
2,2, 5, 4, 0, 2, 0.00,10.00,Thursday
148,26.67419909327554
596,-1.0178999078985552
597,26.87938577113256
2,2, 5, 4, 0, 2,10.00,20.00,Thursday
148,26.6507547186152
596,-1.034772273405765
597,27.606459528410384
2,2, 5, 4, 0, 2,20.00,30.00,Thursday
148,26.631210401644425
596,-1.0481181411304495
597,28.188979058499159
2,2, 5, 4, 0, 2,30.00,40.00,Thursday
148,26.55696334393145
596,-1.0802595723097262
597,29.61817378195164
2,2, 5, 4, 0, 2,40.00,50.00,Thursday
148,26.46415753869094
596,-1.116720167498678
597,31.28298342459273
2,2, 5, 4, 0, 2,50.00,60.00,Thursday
148,26.400846672076015
596,-1.1472874803935529
597,32.71285979226347
2,2, 5, 4, 0, 3, 0.00,10.00,Thursday
148,26.41239633060718
596,-1.1581175666116593
597,33.22666068962019
2,2, 5, 4, 0, 3,10.00,20.00,Thursday
148,26.294905677726335
596,-1.2076855695074862
597,35.6238914222416
2,2, 5, 4, 0, 3,20.00,30.00,Thursday
148,26.272065456007817
596,-1.2294282920438969
597,36.697852034430017
2,2, 5, 4, 0, 3,30.00,40.00,Thursday
148,26.098798568944209
596,-1.2926715212344045
597,39.89204097590129
2,2, 5, 4, 0, 3,40.00,50.00,Thursday
148,25.95238342363092
596,-1.3461276662150424
597,42.66385048749636
2,2, 5, 4, 0, 3,50.00,60.00,Thursday
148,25.96890326221972
596,-1.3595855043859944
597,43.37063593180183
2,2, 5, 4, 0, 4, 0.00,10.00,Thursday
148,25.911412256065295
596,-1.3926838011061425
597,45.122268183959217
2,2, 5, 4, 0, 4,10.00,20.00,Thursday
148,25.804799829865496
596,-1.4372723087713775
597,47.507724674963217
2,2, 5, 4, 0, 4,20.00,30.00,Thursday
148,25.708706434284978
596,-1.4798374479224457
597,49.80616297960871
2,2, 5, 4, 0, 4,30.00,40.00,Thursday
148,25.585950250762044
596,-1.529850835032161
597,52.52383692288012
2,2, 5, 4, 0, 4,40.00,50.00,Thursday
148,25.498720788356868
596,-1.5661653388723509
597,54.50240780878074
2,2, 5, 4, 0, 4,50.00,60.00,Thursday
148,25.477205835994874
596,-1.579698739916037
597,55.23983013362376
2,2, 5, 4, 0, 5, 0.00,10.00,Thursday
148,25.404443010086405
596,-1.6188428438952687
597,57.369973190951309
2,2, 5, 4, 0, 5,10.00,20.00,Thursday
148,25.30052291442214
596,-1.6635908789622008
597,59.79398868182352
2,2, 5, 4, 0, 5,20.00,30.00,Thursday
148,25.14545783953387
596,-1.7161810082819534
597,62.61611638734999
2,2, 5, 4, 0, 5,30.00,40.00,Thursday
148,25.079257602780819
596,-1.7473215512169718
597,64.26804371112812
2,2, 5, 4, 0, 5,40.00,50.00,Thursday
148,25.069737235848899
596,-1.7683988980479804
597,65.37615580009657
2,2, 5, 4, 0, 5,50.00,60.00,Thursday
148,25.007305017152694
596,-1.8028030530627993
597,67.16489610445639
2,2, 5, 4, 0, 6, 0.00,10.00,Thursday
148,25.026814379260978
596,-1.804629080955197
597,67.25908052253317
2,2, 5, 4, 0, 6,10.00,20.00,Thursday
148,24.711001337267246
596,-1.9202413327068929
597,73.03548324058639
2,2, 5, 4, 0, 6,20.00,30.00,Thursday
148,24.487834615593305
596,-2.0031924644652596
597,76.90586886564766
2,2, 5, 4, 0, 6,30.00,40.00,Thursday
148,24.25840564247801
596,-2.0944237510762075
597,80.839742093692
2,2, 5, 4, 0, 6,40.00,50.00,Thursday
148,24.084755827828
596,-2.163507791732486
597,83.56669439352199
2,2, 5, 4, 0, 6,50.00,60.00,Thursday
148,24.1305519352478
596,-2.1546030613325986
597,83.2280340910253
2,2, 5, 4, 0, 7, 0.00,10.00,Thursday
148,24.363943838916044
596,-2.09081389221714
597,80.69108445239361
2,2, 5, 4, 0, 7,10.00,20.00,Thursday
148,24.59829469043881
596,-2.023579475085599
597,77.8159604226164
2,2, 5, 4, 0, 7,20.00,30.00,Thursday
148,24.39960684801395
596,-2.091225733535024
597,80.70807470329922
2,2, 5, 4, 0, 7,30.00,40.00,Thursday
148,24.51545531345272
596,-2.068368945922078
597,79.75348110744506
2,2, 5, 4, 0, 7,40.00,50.00,Thursday
148,24.645982698918997
596,-2.0275294094247604
597,77.99029095759832
2,2, 5, 4, 0, 7,50.00,60.00,Thursday
148,24.730371931982068
596,-2.0026251610525795
597,76.88030027113175
2,2, 5, 4, 0, 8, 0.00,10.00,Thursday
148,24.745940354826275
596,-1.9985149728013217
597,76.6946636608895
2,2, 5, 4, 0, 8,10.00,20.00,Thursday
148,24.675626955736037
596,-2.016522335088568
597,77.5028677669295
2,2, 5, 4, 0, 8,20.00,30.00,Thursday
148,24.58589968319847
596,-2.0403571056823415
597,78.55188375267155
2,2, 5, 4, 0, 8,30.00,40.00,Thursday
148,24.63032485586013
596,-2.015473543075645
597,77.4561609329503
2,2, 5, 4, 0, 8,40.00,50.00,Thursday
148,24.76752005699276
596,-1.955966598123553
597,74.73392820380278
2,2, 5, 4, 0, 8,50.00,60.00,Thursday
148,25.02454493651385
596,-1.8640101083083017
597,70.27498474974274
2,2, 5, 4, 0, 9, 0.00,10.00,Thursday
148,25.146283012733169
596,-1.8142611078927578
597,67.75455058914425
2,2, 5, 4, 0, 9,10.00,20.00,Thursday
148,25.283869506967834
596,-1.7735827063187629
597,65.64732436135
2,2, 5, 4, 0, 9,20.00,30.00,Thursday
148,25.481545218330635
596,-1.688637564717427
597,61.142459189728167
2,2, 5, 4, 0, 9,30.00,40.00,Thursday
148,25.6745284350691
596,-1.6112634205075525
597,56.958015863874397
2,2, 5, 4, 0, 9,40.00,50.00,Thursday
148,25.82046777867428
596,-1.543981625578348
597,53.29353352705385
2,2, 5, 4, 0, 9,50.00,60.00,Thursday
148,25.891639477231796
596,-1.520900517380109
597,52.03660518805601
2,2, 5, 4, 0,10, 0.00,10.00,Thursday
148,27.91153776966719
596,0.1349786551431256
597,5.377452832066737
2,2, 5, 4, 0,10,10.00,20.00,Thursday
148,28.067334309801209
596,0.20979392929029007
597,5.912857788909491
2,2, 5, 4, 0,10,20.00,30.00,Thursday
148,28.3837211107394
596,0.2943996831096813
597,6.800778452266144
2,2, 5, 4, 0,10,30.00,40.00,Thursday
148,28.811034147408987
596,0.409070344481614
597,8.487560957396497
2,2, 5, 4, 0,10,40.00,50.00,Thursday
148,28.93729882643657
596,0.46819406700223245
597,9.57680480361141
2,2, 5, 4, 0,10,50.00,60.00,Thursday
148,29.008729425510404
596,0.5134100171880937
597,10.51142057073524
2,2, 5, 4, 0,11, 0.00,10.00,Thursday
148,29.114037959202343
596,0.5604324326155306
597,11.57717188745363
2,2, 5, 4, 0,11,10.00,20.00,Thursday
148,29.213018587746427
596,0.601354355931236
597,12.582674236860953
2,2, 5, 4, 0,11,20.00,30.00,Thursday
148,29.310962893140724
596,0.6378167112072265
597,13.539822893968989
2,2, 5, 4, 0,11,30.00,40.00,Thursday
148,29.463307691086766
596,0.6940749687880099
597,15.129691581502584
2,2, 5, 4, 0,11,40.00,50.00,Thursday
148,29.589658893954156
596,0.7315138795554932
597,16.263521845778159
2,2, 5, 4, 0,11,50.00,60.00,Thursday
148,29.73825474589703
596,0.7908922813196582
597,18.185125561684175
2,2, 5, 4, 0,12, 0.00,10.00,Thursday
148,29.911166872683624
596,0.8563807382916933
597,20.47771655010429
2,2, 5, 4, 0,12,10.00,20.00,Thursday
148,30.10808635872001
596,0.9169626048752474
597,22.756936623060939
2,2, 5, 4, 0,12,20.00,30.00,Thursday
148,30.270334084664055
596,0.9820064778661265
597,25.368187796377315
2,2, 5, 4, 0,12,30.00,40.00,Thursday
148,30.47066316818698
596,1.040820510779515
597,27.86964766181464
2,2, 5, 4, 0,12,40.00,50.00,Thursday
148,30.53693876037501
596,1.073326072341601
597,29.306772442289615
2,2, 5, 4, 0,12,50.00,60.00,Thursday
148,30.572815576556918
596,1.0932307881142032
597,30.205239169773095
2,2, 5, 4, 0,13, 0.00,10.00,Thursday
148,30.703600180905704
596,1.1366981383196445
597,32.2140804745877
2,2, 5, 4, 0,13,10.00,20.00,Thursday
148,30.93993741705593
596,1.2261633584461738
597,36.535751610050677
2,2, 5, 4, 0,13,20.00,30.00,Thursday
148,31.07429033229459
596,1.2668585114014009
597,38.5762909469214
2,2, 5, 4, 0,13,30.00,40.00,Thursday
148,31.190830847128809
596,1.3090410301299456
597,40.734403517287137
2,2, 5, 4, 0,13,40.00,50.00,Thursday
148,31.290992115375898
596,1.3412398516769398
597,42.40798785892844
2,2, 5, 4, 0,13,50.00,60.00,Thursday
148,31.436412134261027
596,1.3897334276559417
597,44.9654088834128
2,2, 5, 4, 0,14, 0.00,10.00,Thursday
148,31.54265621659142
596,1.433645012674704
597,47.312716735074868
2,2, 5, 4, 0,14,10.00,20.00,Thursday
148,31.629568971742829
596,1.4534762134396209
597,48.380639751909608
2,2, 5, 4, 0,14,20.00,30.00,Thursday
148,31.670939210279085
596,1.4639630042113555
597,48.946989758990948
2,2, 5, 4, 0,14,30.00,40.00,Thursday
148,31.704322320533508
596,1.4802689096152216
597,49.82954339207686
2,2, 5, 4, 0,14,40.00,50.00,Thursday
148,31.753833748264044
596,1.48546441082123
597,50.11119007495757
2,2, 5, 4, 0,14,50.00,60.00,Thursday
148,31.905835550532907
596,1.563736475604377
597,54.37004383954225
2,2, 5, 4, 0,15, 0.00,10.00,Thursday
148,32.109447612934307
596,1.6188142057590942
597,57.36841723983674
2,2, 5, 4, 0,15,10.00,20.00,Thursday
148,32.0917329086315
596,1.621166067732886
597,57.49618146128615
2,2, 5, 4, 0,15,20.00,30.00,Thursday
148,32.11461082840002
596,1.6162609841927239
597,57.2296784874389
2,2, 5, 4, 0,15,30.00,40.00,Thursday
148,32.13081696020618
596,1.6100126493417549
597,56.89000529555397
2,2, 5, 4, 0,15,40.00,50.00,Thursday
148,32.16387096171411
596,1.6360278370618798
597,58.30272931031639
2,2, 5, 4, 0,15,50.00,60.00,Thursday
148,32.23864436337515
596,1.661634032424514
597,59.68834645788019
2,2, 5, 4, 0,16, 0.00,10.00,Thursday
148,32.44946306107188
596,1.7261984938043738
597,63.14929253347916
2,2, 5, 4, 0,16,10.00,20.00,Thursday
148,32.638980041901948
596,1.792246436114203
597,66.61885768299388
2,2, 5, 4, 0,16,20.00,30.00,Thursday
148,32.76032883795912
596,1.8297037568109354
597,68.54405769358367
2,2, 5, 4, 0,16,30.00,40.00,Thursday
148,32.8179308387525
596,1.8507491117754603
597,69.60981580343561
2,2, 5, 4, 0,16,40.00,50.00,Thursday
148,32.82370735247919
596,1.8369670984986087
597,68.91324373304905
2,2, 5, 4, 0,16,50.00,60.00,Thursday
148,32.757421673512137
596,1.810817470055731
597,67.57767155993588
2,2, 5, 4, 0,17, 0.00,10.00,Thursday
148,32.785912593227397
596,1.8459945623139716
597,69.37010593276549
2,2, 5, 4, 0,17,10.00,20.00,Thursday
148,32.921400316670567
596,1.8844522045477954
597,71.2901274851386
2,2, 5, 4, 0,17,20.00,30.00,Thursday
148,32.852255735981469
596,1.8639757021986628
597,70.27326556438311
2,2, 5, 4, 0,17,30.00,40.00,Thursday
148,32.89987676918346
596,1.8773753057469176
597,70.94013417356089
2,2, 5, 4, 0,17,40.00,50.00,Thursday
148,32.84506290974153
596,1.861381990575709
597,70.14356420731643
2,2, 5, 4, 0,17,50.00,60.00,Thursday
148,32.80854790735072
596,1.8238569325383958
597,68.24585924638208
2,2, 5, 4, 0,18, 0.00,10.00,Thursday
148,32.75342552237933
596,1.8111148907223167
597,67.59295984108526
2,2, 5, 4, 0,18,10.00,20.00,Thursday
148,32.7613807786864
596,1.8166433033176233
597,67.87673696523406
2,2, 5, 4, 0,18,20.00,30.00,Thursday
148,32.81137183119577
596,1.839230107150187
597,69.02797971474985
2,2, 5, 4, 0,18,30.00,40.00,Thursday
148,32.88689874108098
596,1.8622557789559716
597,70.1872809965369
2,2, 5, 4, 0,18,40.00,50.00,Thursday
148,32.953953750981359
596,1.8808161367108809
597,71.1104967707708
2,2, 5, 4, 0,18,50.00,60.00,Thursday
148,32.897619457215927
596,1.8585764990447063
597,70.00305109657951
2,2, 5, 4, 0,19, 0.00,10.00,Thursday
148,31.424280314001117
596,0.9679545419669057
597,24.789995605902719
2,2, 5, 4, 0,19,10.00,20.00,Thursday
148,30.940570295702338
596,0.8218156322782
597,19.245229969652259
2,2, 5, 4, 0,19,20.00,30.00,Thursday
148,30.658642164922719
596,0.7457803848352891
597,16.711449737160309
2,2, 5, 4, 0,19,30.00,40.00,Thursday
148,30.457899066650456
596,0.6822448249728289
597,14.783993999264084
2,2, 5, 4, 0,19,40.00,50.00,Thursday
148,30.217855881294189
596,0.6012553013339306
597,12.580152604969044
2,2, 5, 4, 0,19,50.00,60.00,Thursday
148,30.10087848242389
596,0.5355442583037124
597,11.001156768538934
2,2, 5, 4, 0,20, 0.00,10.00,Thursday
148,30.039561007370634
596,0.49487061404570018
597,10.11753192477326
2,2, 5, 4, 0,20,10.00,20.00,Thursday
148,29.935188215140589
596,0.4475645021025791
597,9.179678999410868
2,2, 5, 4, 0,20,20.00,30.00,Thursday
148,29.805961035725536
596,0.39661731429204885
597,8.277256458715869
2,2, 5, 4, 0,20,30.00,40.00,Thursday
148,29.694624288814237
596,0.35392144729000049
597,7.606506344542623
2,2, 5, 4, 0,20,40.00,50.00,Thursday
148,29.59937738079505
596,0.3166105003508409
597,7.083876527428572
2,2, 5, 4, 0,20,50.00,60.00,Thursday
148,29.5344761241846
596,0.2921754941518671
597,6.773578027233839
2,2, 5, 4, 0,21, 0.00,10.00,Thursday
148,29.475500544242615
596,0.2666002449936318
597,6.475810570831229
2,2, 5, 4, 0,21,10.00,20.00,Thursday
148,29.416285793652098
596,0.2436173748680002
597,6.2317279918277539
2,2, 5, 4, 0,21,20.00,30.00,Thursday
148,29.34303209129353
596,0.2132214863521464
597,5.942987686068946
2,2, 5, 4, 0,21,30.00,40.00,Thursday
148,29.29911599350202
596,0.19556246184874052
597,5.793014605583764
2,2, 5, 4, 0,21,40.00,50.00,Thursday
148,29.2498275487893
596,0.17382004086349019
597,5.626266987808123
2,2, 5, 4, 0,21,50.00,60.00,Thursday
148,29.165095561861177
596,0.1391631404538295
597,5.401238706546266
2,2, 5, 4, 0,22, 0.00,10.00,Thursday
148,29.03398015111675
596,0.09121640005596478
597,5.172301175385911
2,2, 5, 4, 0,22,10.00,20.00,Thursday
148,28.94940175590691
596,0.06087734591492432
597,5.076729860618883
2,2, 5, 4, 0,22,20.00,30.00,Thursday
148,28.831731290450109
596,0.012803618753874336
597,5.003393512878674
2,2, 5, 4, 0,22,30.00,40.00,Thursday
148,28.797350556497599
596,0.003804960875591837
597,5.000299696388183
2,2, 5, 4, 0,22,40.00,50.00,Thursday
148,28.766097694477137
596,-0.017066840573926227
597,5.006029659407901
2,2, 5, 4, 0,22,50.00,60.00,Thursday
148,28.778794744140936