Program Version,EnergyPlus, Version 9.5.0-de239b2e5f, YMD=2021.12.08 22:34
1,5,Environment Title[],Latitude[deg],Longitude[deg],Time Zone[],Elevation[m]
2,8,Day of Simulation[],Month[],Day of Month[],DST Indicator[1=yes 0=no],Hour[],StartMinute[],EndMinute[],DayType
3,5,Cumulative Day of Simulation[],Month[],Day of Month[],DST Indicator[1=yes 0=no],DayType  ! When Daily Report Variables Requested
4,2,Cumulative Days of Simulation[],Month[]  ! When Monthly Report Variables Requested
5,1,Cumulative Days of Simulation[] ! When Run Period Report Variables Requested
6,1,Calendar Year of Simulation[] ! When Annual Report Variables Requested
148,1,THERMAL ZONE: JORGE,Zone Mean Air Temperature [C] !TimeStep
596,1,JORGE,Zone Thermal Comfort Fanger Model PMV [] !TimeStep
597,1,JORGE,Zone Thermal Comfort Fanger Model PPD [%] !TimeStep
End of Data Dictionary
1,RUN PERIOD 1,  18.85, -99.14,  -6.00,1280.00
2,1, 5, 3, 0, 1, 0.00,10.00,Wednesday
148,26.39854549099214
596,-31.144990104030197
597,100.0
2,1, 5, 3, 0, 1,10.00,20.00,Wednesday
148,26.36476370952373
596,-31.27989381852784
597,100.0
2,1, 5, 3, 0, 1,20.00,30.00,Wednesday
148,26.391800044899197
596,-31.276088289276534
597,100.0
2,1, 5, 3, 0, 1,30.00,40.00,Wednesday
148,26.36583286359483
596,-31.395700248400016
597,100.0
2,1, 5, 3, 0, 1,40.00,50.00,Wednesday
148,26.253740381030025
596,-31.662004755947409
597,100.0
2,1, 5, 3, 0, 1,50.00,60.00,Wednesday
148,26.05306836738009
596,-32.09020267735538
597,100.0
2,1, 5, 3, 0, 2, 0.00,10.00,Wednesday
148,25.888594635884269
596,-32.4679420834402
597,100.0
2,1, 5, 3, 0, 2,10.00,20.00,Wednesday
148,25.776734812248486
596,-32.75776754464616
597,100.0
2,1, 5, 3, 0, 2,20.00,30.00,Wednesday
148,25.535033486425257
596,-33.275653191714777
597,100.0
2,1, 5, 3, 0, 2,30.00,40.00,Wednesday
148,25.404306453867
596,-33.59185233319208
597,100.0
2,1, 5, 3, 0, 2,40.00,50.00,Wednesday
148,25.366300902365496
596,-33.732703789630608
597,100.0
2,1, 5, 3, 0, 2,50.00,60.00,Wednesday
148,25.41947288252002
596,-33.72201074956783
597,100.0
2,1, 5, 3, 0, 3, 0.00,10.00,Wednesday
148,25.44541704265029
596,-33.758276578302169
597,100.0
2,1, 5, 3, 0, 3,10.00,20.00,Wednesday
148,25.58581002380247
596,-33.57933535839964
597,100.0
2,1, 5, 3, 0, 3,20.00,30.00,Wednesday
148,25.688630202356199
596,-33.45232572827923
597,100.0
2,1, 5, 3, 0, 3,30.00,40.00,Wednesday
148,25.62394464158076
596,-33.64529662696376
597,100.0
2,1, 5, 3, 0, 3,40.00,50.00,Wednesday
148,25.561333606925904
596,-33.815920177946207
597,100.0
2,1, 5, 3, 0, 3,50.00,60.00,Wednesday
148,25.50120728533855
596,-34.01039132293524
597,100.0
2,1, 5, 3, 0, 4, 0.00,10.00,Wednesday
148,25.443785547724305
596,-34.18958561418355
597,100.0
2,1, 5, 3, 0, 4,10.00,20.00,Wednesday
148,25.334459491040087
596,-34.44544569939217
597,100.0
2,1, 5, 3, 0, 4,20.00,30.00,Wednesday
148,25.310734723431027
596,-34.58908634159923
597,100.0
2,1, 5, 3, 0, 4,30.00,40.00,Wednesday
148,25.021342007075654
596,-35.20151513497978
597,100.0
2,1, 5, 3, 0, 4,40.00,50.00,Wednesday
148,24.6346101903371
596,-36.041496353844987
597,100.0
2,1, 5, 3, 0, 4,50.00,60.00,Wednesday
148,24.472974190487663
596,-36.43738097739762
597,100.0
2,1, 5, 3, 0, 5, 0.00,10.00,Wednesday
148,24.40462067184282
596,-36.66941854122716
597,100.0
2,1, 5, 3, 0, 5,10.00,20.00,Wednesday
148,24.588321875079069
596,-36.422131699379409
597,100.0
2,1, 5, 3, 0, 5,20.00,30.00,Wednesday
148,24.751769982897206
596,-36.158988032175098
597,100.0
2,1, 5, 3, 0, 5,30.00,40.00,Wednesday
148,24.863292534414798
596,-36.017049367507677
597,100.0
2,1, 5, 3, 0, 5,40.00,50.00,Wednesday
148,24.78641437133481
596,-36.184997891325128
597,100.0
2,1, 5, 3, 0, 5,50.00,60.00,Wednesday
148,24.530507063584758
596,-36.75359534198578
597,100.0
2,1, 5, 3, 0, 6, 0.00,10.00,Wednesday
148,24.317143905763424
596,-37.21540945843079
597,100.0
2,1, 5, 3, 0, 6,10.00,20.00,Wednesday
148,24.104271796953648
596,-37.760864295613938
597,100.0
2,1, 5, 3, 0, 6,20.00,30.00,Wednesday
148,24.058782345291449
596,-37.91451508450859
597,100.0
2,1, 5, 3, 0, 6,30.00,40.00,Wednesday
148,23.88437244908399
596,-38.37433752236012
597,100.0
2,1, 5, 3, 0, 6,40.00,50.00,Wednesday
148,23.70649129039347
596,-38.77429627877462
597,100.0
2,1, 5, 3, 0, 6,50.00,60.00,Wednesday
148,23.584380718834557
596,-39.09492510695812
597,100.0
2,1, 5, 3, 0, 7, 0.00,10.00,Wednesday
148,23.63195740056076
596,-39.069204004542807
597,100.0
2,1, 5, 3, 0, 7,10.00,20.00,Wednesday
148,23.81312786414204
596,-38.76511728768748
597,100.0
2,1, 5, 3, 0, 7,20.00,30.00,Wednesday
148,23.88999714411896
596,-38.69518595319597
597,100.0
2,1, 5, 3, 0, 7,30.00,40.00,Wednesday
148,23.548607360372693
596,-39.40810797259921
597,100.0
2,1, 5, 3, 0, 7,40.00,50.00,Wednesday
148,23.377278831581767
596,-39.78283739679306
597,100.0
2,1, 5, 3, 0, 7,50.00,60.00,Wednesday
148,23.768181236057523
596,-39.03417592694319
597,100.0
2,1, 5, 3, 0, 8, 0.00,10.00,Wednesday
148,23.98324508007254
596,-38.6015170945141
597,100.0
2,1, 5, 3, 0, 8,10.00,20.00,Wednesday
148,23.741586845924318
596,-39.058745804007077
597,100.0
2,1, 5, 3, 0, 8,20.00,30.00,Wednesday
148,23.795072773837256
596,-38.91145326417277
597,100.0
2,1, 5, 3, 0, 8,30.00,40.00,Wednesday
148,23.939546154338808
596,-38.57540252702928
597,100.0
2,1, 5, 3, 0, 8,40.00,50.00,Wednesday
148,24.162173602508277
596,-38.05834617984235
597,100.0
2,1, 5, 3, 0, 8,50.00,60.00,Wednesday
148,24.419633311390656
596,-37.46074097563341
597,100.0
2,1, 5, 3, 0, 9, 0.00,10.00,Wednesday
148,24.930327979617674
596,-36.34504376944885
597,100.0
2,1, 5, 3, 0, 9,10.00,20.00,Wednesday
148,25.198753130220366
596,-35.78802878846702
597,100.0
2,1, 5, 3, 0, 9,20.00,30.00,Wednesday
148,25.28429477914276
596,-35.556143673349058
597,100.0
2,1, 5, 3, 0, 9,30.00,40.00,Wednesday
148,25.3252648113897
596,-35.385631259874177
597,100.0
2,1, 5, 3, 0, 9,40.00,50.00,Wednesday
148,25.40383457118992
596,-35.112311931149907
597,100.0
2,1, 5, 3, 0, 9,50.00,60.00,Wednesday
148,25.506168734935917
596,-34.81156458054628
597,100.0
2,1, 5, 3, 0,10, 0.00,10.00,Wednesday
148,27.735619823728915
596,0.08841202349191722
597,5.1618658786209299
2,1, 5, 3, 0,10,10.00,20.00,Wednesday
148,28.016980013628328
596,0.20185164171401763
597,5.844931032794847
2,1, 5, 3, 0,10,20.00,30.00,Wednesday
148,28.325768734948455
596,0.28124142520553066
597,6.642898727344544
2,1, 5, 3, 0,10,30.00,40.00,Wednesday
148,28.824975507015304
596,0.4221568114763301
597,8.715719835623404
2,1, 5, 3, 0,10,40.00,50.00,Wednesday
148,28.963596799019649
596,0.4883826165252435
597,9.983195653213926
2,1, 5, 3, 0,10,50.00,60.00,Wednesday
148,28.92007345793804
596,0.5027605178393029
597,10.283345161457376
2,1, 5, 3, 0,11, 0.00,10.00,Wednesday
148,28.85451577961583
596,0.49427978119862528
597,10.105223289871802
2,1, 5, 3, 0,11,10.00,20.00,Wednesday
148,29.071758153620583
596,0.5635283060568589
597,11.650701091287829
2,1, 5, 3, 0,11,20.00,30.00,Wednesday
148,29.313725239512914
596,0.643600131462355
597,13.69693968216771
2,1, 5, 3, 0,11,30.00,40.00,Wednesday
148,29.43825086954828
596,0.6955176075532964
597,15.17226175403178
2,1, 5, 3, 0,11,40.00,50.00,Wednesday
148,29.507872352587204
596,0.7306828792770692
597,16.23770018026154
2,1, 5, 3, 0,11,50.00,60.00,Wednesday
148,29.61238706840078
596,0.771484786105042
597,17.540499829743227
2,1, 5, 3, 0,12, 0.00,10.00,Wednesday
148,29.774466645457648
596,0.8292191754198672
597,19.50501338687998
2,1, 5, 3, 0,12,10.00,20.00,Wednesday
148,29.869015643896483
596,0.8604820268759322
597,20.627258423711028
2,1, 5, 3, 0,12,20.00,30.00,Wednesday
148,30.093020600962015
596,0.9373686297602304
597,23.558153374375949
2,1, 5, 3, 0,12,30.00,40.00,Wednesday
148,30.21598691814742
596,0.9808915440916124
597,25.322033101983238
2,1, 5, 3, 0,12,40.00,50.00,Wednesday
148,30.409702439942035
596,1.0467711437511754
597,28.12989126879721
2,1, 5, 3, 0,12,50.00,60.00,Wednesday
148,30.586330881063668
596,1.1074994000741466
597,30.8576928962012
2,1, 5, 3, 0,13, 0.00,10.00,Wednesday
148,30.798777235451984
596,1.1818369480316027
597,34.36463862317453
2,1, 5, 3, 0,13,10.00,20.00,Wednesday
148,30.920705784271946
596,1.2255846955220143
597,36.50705189481717
2,1, 5, 3, 0,13,20.00,30.00,Wednesday
148,31.00078792717573
596,1.267501616499288
597,38.60887690761429
2,1, 5, 3, 0,13,30.00,40.00,Wednesday
148,31.074051613589967
596,1.2799886182865066
597,39.24358499349431
2,1, 5, 3, 0,13,40.00,50.00,Wednesday
148,31.193772696731175
596,1.297194110636975
597,40.124170669782447
2,1, 5, 3, 0,13,50.00,60.00,Wednesday
148,31.275540787846308
596,1.3266854508893776
597,41.64887198891647
2,1, 5, 3, 0,14, 0.00,10.00,Wednesday
148,31.29392732506492
596,1.3691500430794706
597,43.87492901228294
2,1, 5, 3, 0,14,10.00,20.00,Wednesday
148,31.43482023359695
596,1.4431359936231858
597,47.82327912901222
2,1, 5, 3, 0,14,20.00,30.00,Wednesday
148,31.58304755990904
596,1.4962632275890789
597,50.69718836005659
2,1, 5, 3, 0,14,30.00,40.00,Wednesday
148,31.670506664595249
596,1.5322905001510128
597,52.65668966049814
2,1, 5, 3, 0,14,40.00,50.00,Wednesday
148,31.89565071024087
596,1.5955523332064508
597,56.10322638463362
2,1, 5, 3, 0,14,50.00,60.00,Wednesday
148,32.23138670369018
596,1.667872558079479
597,60.02500235727955
2,1, 5, 3, 0,15, 0.00,10.00,Wednesday
148,31.842719589218477
596,-22.838576317824584
597,100.0
2,1, 5, 3, 0,15,10.00,20.00,Wednesday
148,31.764481616823639
596,-22.921873521125446
597,100.0
2,1, 5, 3, 0,15,20.00,30.00,Wednesday
148,31.97242786947631
596,-22.2254524795862
597,100.0
2,1, 5, 3, 0,15,30.00,40.00,Wednesday
148,32.10350750541792
596,-21.719941945330445
597,100.0
2,1, 5, 3, 0,15,40.00,50.00,Wednesday
148,32.20515691613717
596,-21.48021454064638
597,100.0
2,1, 5, 3, 0,15,50.00,60.00,Wednesday
148,32.3202948586775
596,-21.061287823422786
597,100.0
2,1, 5, 3, 0,16, 0.00,10.00,Wednesday
148,32.428585557959049
596,-20.61478047628717
597,100.0
2,1, 5, 3, 0,16,10.00,20.00,Wednesday
148,32.542659520385068
596,-20.38170822137124
597,100.0
2,1, 5, 3, 0,16,20.00,30.00,Wednesday
148,32.5641380402292
596,-20.334326857666917
597,100.0
2,1, 5, 3, 0,16,30.00,40.00,Wednesday
148,32.694734917291437
596,1.0783577343141225
597,29.532589734512386
2,1, 5, 3, 0,16,40.00,50.00,Wednesday
148,32.87448025825556
596,1.1619861832805039
597,33.411085708707307
2,1, 5, 3, 0,16,50.00,60.00,Wednesday
148,32.70029416126576
596,1.05791330755886
597,28.620626785374996
2,1, 5, 3, 0,17, 0.00,10.00,Wednesday
148,32.51620667523374
596,1.9183505720952193
597,72.94434083133493
2,1, 5, 3, 0,17,10.00,20.00,Wednesday
148,32.33877224261046
596,1.87622865540821
597,70.88328033854873
2,1, 5, 3, 0,17,20.00,30.00,Wednesday
148,32.02674965799581
596,1.7939887385086717
597,66.70915620972701
2,1, 5, 3, 0,17,30.00,40.00,Wednesday
148,31.830904033406868
596,1.7462979968101982
597,64.21401532473338
2,1, 5, 3, 0,17,40.00,50.00,Wednesday
148,31.778039628662424
596,1.7331747557498634
597,63.51963473604761
2,1, 5, 3, 0,17,50.00,60.00,Wednesday
148,31.818887314916908
596,1.747757697296483
597,64.29105983350095
2,1, 5, 3, 0,18, 0.00,10.00,Wednesday
148,31.72197223331338
596,1.7325353399097306
597,63.48572478810168
2,1, 5, 3, 0,18,10.00,20.00,Wednesday
148,31.62426044257038
596,1.7201614115611637
597,62.828162238671797
2,1, 5, 3, 0,18,20.00,30.00,Wednesday
148,31.630982860392036
596,1.7344730222311238
597,63.58846378926293
2,1, 5, 3, 0,18,30.00,40.00,Wednesday
148,31.670242511193078
596,1.753694084921808
597,64.60397866240248
2,1, 5, 3, 0,18,40.00,50.00,Wednesday
148,31.749868288743458
596,1.7807853750109229
597,66.0231593655148
2,1, 5, 3, 0,18,50.00,60.00,Wednesday
148,31.887005524347125
596,1.8187941734786295
597,67.98693576222468
2,1, 5, 3, 0,19, 0.00,10.00,Wednesday
148,30.320436690638276
596,-20.95566291926326
597,100.0
2,1, 5, 3, 0,19,10.00,20.00,Wednesday
148,29.93401470241791
596,-21.701537733261096
597,100.0
2,1, 5, 3, 0,19,20.00,30.00,Wednesday
148,29.728129037897174
596,-22.12438499206311
597,100.0
2,1, 5, 3, 0,19,30.00,40.00,Wednesday
148,29.252323717396594
596,-22.847045709182436
597,100.0
2,1, 5, 3, 0,19,40.00,50.00,Wednesday
148,28.985061355348006
596,-23.344871569407567
597,100.0
2,1, 5, 3, 0,19,50.00,60.00,Wednesday
148,28.91274673529356
596,-23.646353082379436
597,100.0
2,1, 5, 3, 0,20, 0.00,10.00,Wednesday
148,28.898547451321279
596,-23.785424313477887
597,100.0
2,1, 5, 3, 0,20,10.00,20.00,Wednesday
148,28.8344926781826
596,-23.993169995385274
597,100.0
2,1, 5, 3, 0,20,20.00,30.00,Wednesday
148,28.66789222666371
596,-24.37226745759065
597,100.0
2,1, 5, 3, 0,20,30.00,40.00,Wednesday
148,28.505230731503525
596,-24.72702058363125
597,100.0
2,1, 5, 3, 0,20,40.00,50.00,Wednesday
148,28.241899825725448
596,-25.265250262453845
597,100.0
2,1, 5, 3, 0,20,50.00,60.00,Wednesday
148,28.10704054551252
596,-25.63743553208997
597,100.0
2,1, 5, 3, 0,21, 0.00,10.00,Wednesday
148,27.948469739129938
596,-26.031552695439865
597,100.0
2,1, 5, 3, 0,21,10.00,20.00,Wednesday
148,27.802990893202
596,-26.38750468264818
597,100.0
2,1, 5, 3, 0,21,20.00,30.00,Wednesday
148,27.559647983150769
596,-26.947855924540645
597,100.0
2,1, 5, 3, 0,21,30.00,40.00,Wednesday
148,27.15710506123054
596,-27.754967942578973
597,100.0
2,1, 5, 3, 0,21,40.00,50.00,Wednesday
148,27.256160111333626
596,-27.693453218407244
597,100.0
2,1, 5, 3, 0,21,50.00,60.00,Wednesday
148,27.15488626351375
596,-27.979972009247125
597,100.0
2,1, 5, 3, 0,22, 0.00,10.00,Wednesday
148,27.16347738183177
596,-28.031323282434177
597,100.0
2,1, 5, 3, 0,22,10.00,20.00,Wednesday
148,27.108442111751655
596,-28.201948966613199
597,100.0
2,1, 5, 3, 0,22,20.00,30.00,Wednesday
148,26.882079063104429
596,-28.7698873722275
597,100.0
2,1, 5, 3, 0,22,30.00,40.00,Wednesday
148,26.780357004943075
596,-29.06681755396137
597,100.0
2,1, 5, 3, 0,22,40.00,50.00,Wednesday
148,26.856366662222546
596,-29.01225775425774
597,100.0
2,1, 5, 3, 0,22,50.00,60.00,Wednesday
148,26.840034317744526
596,-29.127941888697973
597,100.0
2,1, 5, 3, 0,23, 0.00,10.00,Wednesday
148,27.011274882180218
596,-28.943572714779827
597,100.0
2,1, 5, 3, 0,23,10.00,20.00,Wednesday
148,26.961196744318646
596,-29.045262931614919
597,100.0
2,1, 5, 3, 0,23,20.00,30.00,Wednesday
148,26.888779185373854
596,-29.261815665227944
597,100.0
2,1, 5, 3, 0,23,30.00,40.00,Wednesday
148,27.014409313605947
596,-29.18903233556703
597,100.0
2,1, 5, 3, 0,23,40.00,50.00,Wednesday
148,27.054984581401443
596,-29.187663149108784
597,100.0
2,1, 5, 3, 0,23,50.00,60.00,Wednesday
148,26.987976961533776
596,-29.34718451155832
597,100.0
2,1, 5, 3, 0,24, 0.00,10.00,Wednesday
148,26.997998885807829
596,-29.399941990880817
597,100.0
2,1, 5, 3, 0,24,10.00,20.00,Wednesday
148,27.02073021816409
596,-29.44519097469945
597,100.0
2,1, 5, 3, 0,24,20.00,30.00,Wednesday
148,26.923760288737836
596,-29.68062953450329
597,100.0
2,1, 5, 3, 0,24,30.00,40.00,Wednesday
148,26.86016245502874
596,-29.85536266421335
597,100.0
2,1, 5, 3, 0,24,40.00,50.00,Wednesday
148,26.727980064501563
596,-30.158528586067516
597,100.0
2,1, 5, 3, 0,24,50.00,60.00,Wednesday
148,26.6668741632638
596,-30.33398518266058
597,100.0
2,2, 5, 4, 0, 1, 0.00,10.00,Thursday
148,26.84143640537823
596,-30.12886795046224
597,100.0
2,2, 5, 4, 0, 1,10.00,20.00,Thursday
148,26.933727064179445
596,-30.058580578365399
597,100.0
2,2, 5, 4, 0, 1,20.00,30.00,Thursday
148,26.810158257366518
596,-30.324532018658105
597,100.0
2,2, 5, 4, 0, 1,30.00,40.00,Thursday
148,26.573601643463048
596,-30.810466948858676
597,100.0
2,2, 5, 4, 0, 1,40.00,50.00,Thursday
148,26.51759136926683
596,-30.961882735579264
597,100.0
2,2, 5, 4, 0, 1,50.00,60.00,Thursday
148,26.573998979479847
596,-30.92677203091876
597,100.0
2,2, 5, 4, 0, 2, 0.00,10.00,Thursday
148,26.67017801312128
596,-30.821148642254255
597,100.0
2,2, 5, 4, 0, 2,10.00,20.00,Thursday
148,26.646846752389508
596,-30.918553638506638
597,100.0
2,2, 5, 4, 0, 2,20.00,30.00,Thursday
148,26.6273431455302
596,-30.996621808435945
597,100.0
2,2, 5, 4, 0, 2,30.00,40.00,Thursday
148,26.553225148477499
596,-31.186382958964864
597,100.0
2,2, 5, 4, 0, 2,40.00,50.00,Thursday
148,26.460572234624196
596,-31.401774211038629
597,100.0
2,2, 5, 4, 0, 2,50.00,60.00,Thursday
148,26.397331043014157
596,-31.58107823770744
597,100.0
2,2, 5, 4, 0, 3, 0.00,10.00,Thursday
148,26.40881283274387
596,-31.64232832875085
597,100.0
2,2, 5, 4, 0, 3,10.00,20.00,Thursday
148,26.291520262561684
596,-31.935990291065186
597,100.0
2,2, 5, 4, 0, 3,20.00,30.00,Thursday
148,26.268595407882743
596,-32.06331942445692
597,100.0
2,2, 5, 4, 0, 3,30.00,40.00,Thursday
148,26.095390682530988
596,-32.44059655967175
597,100.0
2,2, 5, 4, 0, 3,40.00,50.00,Thursday
148,25.94902794706488
596,-32.760581203002107
597,100.0
2,2, 5, 4, 0, 3,50.00,60.00,Thursday
148,25.965549606287973
596,-32.83758916698734
597,100.0
2,2, 5, 4, 0, 4, 0.00,10.00,Thursday
148,25.908113374221697
596,-33.03313854160365
597,100.0
2,2, 5, 4, 0, 4,10.00,20.00,Thursday
148,25.801497646177123
596,-33.30106494727587
597,100.0
2,2, 5, 4, 0, 4,20.00,30.00,Thursday
148,25.705485631771358
596,-33.553973156779168
597,100.0
2,2, 5, 4, 0, 4,30.00,40.00,Thursday
148,25.582806437145064
596,-33.85239933976745
597,100.0
2,2, 5, 4, 0, 4,40.00,50.00,Thursday
148,25.495619387690334
596,-34.067370634465827
597,100.0
2,2, 5, 4, 0, 4,50.00,60.00,Thursday
148,25.474086021776914
596,-34.14853123163778
597,100.0
2,2, 5, 4, 0, 5, 0.00,10.00,Thursday
148,25.401298247782738
596,-34.381260061067717
597,100.0
2,2, 5, 4, 0, 5,10.00,20.00,Thursday
148,25.29743786270635
596,-34.64579911036455
597,100.0
2,2, 5, 4, 0, 5,20.00,30.00,Thursday
148,25.142510642211304
596,-34.95715933539049
597,100.0
2,2, 5, 4, 0, 5,30.00,40.00,Thursday
148,25.07637524811546
596,-35.14057153060785
597,100.0
2,2, 5, 4, 0, 5,40.00,50.00,Thursday
148,25.066834772500124
596,-35.2633759089352
597,100.0
2,2, 5, 4, 0, 5,50.00,60.00,Thursday
148,25.004420011613516
596,-35.46462796327778
597,100.0
2,2, 5, 4, 0, 6, 0.00,10.00,Thursday
148,25.024004493299456
596,-35.47390720508629
597,100.0
2,2, 5, 4, 0, 6,10.00,20.00,Thursday
148,24.708345636197543
596,-36.16009330731634
597,100.0
2,2, 5, 4, 0, 6,20.00,30.00,Thursday
148,24.485225597000335
596,-36.6535777556616
597,100.0
2,2, 5, 4, 0, 6,30.00,40.00,Thursday
148,24.255871252935319
596,-37.194633223765737
597,100.0
2,2, 5, 4, 0, 6,40.00,50.00,Thursday
148,24.08229045713212
596,-37.602210253275547
597,100.0
2,2, 5, 4, 0, 6,50.00,60.00,Thursday
148,24.12809840092992
596,-37.547622610555247
597,100.0
2,2, 5, 4, 0, 7, 0.00,10.00,Thursday
148,24.361385846436204
596,-37.16689386859922
597,100.0
2,2, 5, 4, 0, 7,10.00,20.00,Thursday
148,24.59568198983898
596,-36.7645648985133
597,100.0
2,2, 5, 4, 0, 7,20.00,30.00,Thursday
148,24.39720890051014
596,-37.166233488734359
597,100.0
2,2, 5, 4, 0, 7,30.00,40.00,Thursday
148,24.512988174675525
596,-37.028165006149297
597,100.0
2,2, 5, 4, 0, 7,40.00,50.00,Thursday
148,24.64353957198022
596,-36.78357962832366
597,100.0
2,2, 5, 4, 0, 7,50.00,60.00,Thursday
148,24.72797003562164
596,-36.63408981611392
597,100.0
2,2, 5, 4, 0, 8, 0.00,10.00,Thursday
148,24.743626896512187
596,-36.60936580649647
597,100.0
2,2, 5, 4, 0, 8,10.00,20.00,Thursday
148,24.67343745974564
596,-36.71763680324941
597,100.0
2,2, 5, 4, 0, 8,20.00,30.00,Thursday
148,24.583814148761538
596,-36.86069343081692
597,100.0
2,2, 5, 4, 0, 8,30.00,40.00,Thursday
148,24.628274286479987
596,-36.71661980043442
597,100.0
2,2, 5, 4, 0, 8,40.00,50.00,Thursday
148,24.765507122274415
596,-36.36675476885793
597,100.0
2,2, 5, 4, 0, 8,50.00,60.00,Thursday
148,25.022475874472776
596,-35.82044367552843
597,100.0
2,2, 5, 4, 0, 9, 0.00,10.00,Thursday
148,25.144211319647405
596,-35.526012629131859
597,100.0
2,2, 5, 4, 0, 9,10.00,20.00,Thursday
148,25.281819486631006
596,-35.281720719629138
597,100.0
2,2, 5, 4, 0, 9,20.00,30.00,Thursday
148,25.479511567276849
596,-34.77707605780387
597,100.0
2,2, 5, 4, 0, 9,30.00,40.00,Thursday
148,25.672442662579319
596,-34.317161712565489
597,100.0
2,2, 5, 4, 0, 9,40.00,50.00,Thursday
148,25.81840727939936
596,-33.91843208727584
597,100.0
2,2, 5, 4, 0, 9,50.00,60.00,Thursday
148,25.889622356418547
596,-33.780112156639578
597,100.0
2,2, 5, 4, 0,10, 0.00,10.00,Thursday
148,27.909152564863058
596,0.13417454878074959
597,5.372965490246017
2,2, 5, 4, 0,10,10.00,20.00,Thursday
148,28.06522078458399
596,0.20904418314787327
597,5.9063327139376728
2,2, 5, 4, 0,10,20.00,30.00,Thursday
148,28.381636079568144
596,0.2936658729664073
597,6.79178131765056
2,2, 5, 4, 0,10,30.00,40.00,Thursday
148,28.808973760062224
596,0.40834475983248377
597,8.475125294194357
2,2, 5, 4, 0,10,40.00,50.00,Thursday
148,28.935307722985614
596,0.4674860599340821
597,9.56287174655813
2,2, 5, 4, 0,10,50.00,60.00,Thursday
148,29.006769045880377
596,0.5127116591714639
597,10.496313905126243
2,2, 5, 4, 0,11, 0.00,10.00,Thursday
148,29.112105383036036
596,0.5597477486103759
597,11.56096628095682
2,2, 5, 4, 0,11,10.00,20.00,Thursday
148,29.21114258803139
596,0.6006883315362744
597,12.565727455033354
2,2, 5, 4, 0,11,20.00,30.00,Thursday
148,29.30909231617948
596,0.6371561265271205
597,13.521969260131386
2,2, 5, 4, 0,11,30.00,40.00,Thursday
148,29.461468901878779
596,0.6934268711817562
597,15.110596429882364
2,2, 5, 4, 0,11,40.00,50.00,Thursday
148,29.58785952297958
596,0.7308787577473256
597,16.243784036952265
2,2, 5, 4, 0,11,50.00,60.00,Thursday
148,29.736462438150764
596,0.790264674747669
597,18.16402896597856
2,2, 5, 4, 0,12, 0.00,10.00,Thursday
148,29.909412067232809
596,0.8557650103903957
597,20.45532598533194
2,2, 5, 4, 0,12,10.00,20.00,Thursday
148,30.106301212464915
596,0.916342847541306
597,22.732863853875118
2,2, 5, 4, 0,12,20.00,30.00,Thursday
148,30.26853165253374
596,0.9813853139124454
597,25.342467687828916
2,2, 5, 4, 0,12,30.00,40.00,Thursday
148,30.398170658242497
596,1.0181530392550314
597,26.89021577704777
2,2, 5, 4, 0,12,40.00,50.00,Thursday
148,30.510037608291364
596,1.0611386182765475
597,28.76351199623744
2,2, 5, 4, 0,12,50.00,60.00,Thursday
148,30.562024601268747
596,1.085684947564899
597,29.863012256895887
2,2, 5, 4, 0,13, 0.00,10.00,Thursday
148,30.69759924011452
596,1.1310107852531449
597,31.947685351728368
2,2, 5, 4, 0,13,10.00,20.00,Thursday
148,30.9361139720104
596,1.2211846923927694
597,36.28912672048757
2,2, 5, 4, 0,13,20.00,30.00,Thursday
148,31.071144043720048
596,1.2625640183965513
597,38.35895234240972
2,2, 5, 4, 0,13,30.00,40.00,Thursday
148,31.18842352982191
596,1.3051089885303456
597,40.53152120622577
2,2, 5, 4, 0,13,40.00,50.00,Thursday
148,31.28885047914831
596,1.3377015752533639
597,42.2230565942494
2,2, 5, 4, 0,13,50.00,60.00,Thursday
148,31.4346073033667
596,1.3865229811775586
597,44.79487527276014
2,2, 5, 4, 0,14, 0.00,10.00,Thursday
148,31.54081647232582
596,1.4308559865573075
597,47.16287986580045
2,2, 5, 4, 0,14,10.00,20.00,Thursday
148,31.627845250505808
596,1.4510506384639737
597,48.249796541162208
2,2, 5, 4, 0,14,20.00,30.00,Thursday
148,31.669298589395554
596,1.4618153318823509
597,48.830918161133599
2,2, 5, 4, 0,14,30.00,40.00,Thursday
148,31.70261186702643
596,1.4782696446249027
597,49.72121749455915
2,2, 5, 4, 0,14,40.00,50.00,Thursday
148,31.75233989427391
596,1.4836865505913775
597,50.01479057937136
2,2, 5, 4, 0,14,50.00,60.00,Thursday
148,31.904169823751837
596,1.561991686919191
597,54.27495818124202
2,2, 5, 4, 0,15, 0.00,10.00,Thursday
148,31.982735861638778
596,-22.419716948289115
597,100.0
2,2, 5, 4, 0,15,10.00,20.00,Thursday
148,31.91898425693303
596,-22.581022617184453
597,100.0
2,2, 5, 4, 0,15,20.00,30.00,Thursday
148,31.941874137525816
596,-22.60085740721944
597,100.0
2,2, 5, 4, 0,15,30.00,40.00,Thursday
148,31.928792970991407
596,-22.76401212696811
597,100.0
2,2, 5, 4, 0,15,40.00,50.00,Thursday
148,31.943365767597457
596,-22.69570243533825
597,100.0
2,2, 5, 4, 0,15,50.00,60.00,Thursday
148,32.03746629624961
596,-22.343644706700088
597,100.0
2,2, 5, 4, 0,16, 0.00,10.00,Thursday
148,32.253526752833618
596,-21.598562790798839
597,100.0
2,2, 5, 4, 0,16,10.00,20.00,Thursday
148,32.45011546314764
596,-20.928924755517817
597,100.0
2,2, 5, 4, 0,16,20.00,30.00,Thursday
148,32.57204904250686
596,-20.605065045472043
597,100.0
2,2, 5, 4, 0,16,30.00,40.00,Thursday
148,32.75737188960728
596,1.0489072664261639
597,28.223625590351078
2,2, 5, 4, 0,16,40.00,50.00,Thursday
148,32.781310806502279
596,1.0540845362564873
597,28.451491448073669
2,2, 5, 4, 0,16,50.00,60.00,Thursday
148,32.72475436197898
596,1.031369292723492
597,27.458969232089019
2,2, 5, 4, 0,17, 0.00,10.00,Thursday
148,32.7672657895081
596,1.9337357028802396
597,73.68237375028194
2,2, 5, 4, 0,17,10.00,20.00,Thursday
148,32.910579722345229
596,1.9757618164931388
597,75.65485311127836
2,2, 5, 4, 0,17,20.00,30.00,Thursday
148,32.84017089292277
596,1.9634769438395439
597,75.08507385901778
2,2, 5, 4, 0,17,30.00,40.00,Thursday
148,32.88857829031618
596,1.9868990919665602
597,76.16637307841912
2,2, 5, 4, 0,17,40.00,50.00,Thursday
148,32.83298134842544
596,1.9762871562005194
597,75.67908968755495
2,2, 5, 4, 0,17,50.00,60.00,Thursday
148,32.798253791533337
596,1.949486889574381
597,74.42928556479002
2,2, 5, 4, 0,18, 0.00,10.00,Thursday
148,32.74168390879574
596,1.9412451433624585
597,74.03958124153557
2,2, 5, 4, 0,18,10.00,20.00,Thursday
148,32.75040011523335
596,1.947505172815543
597,74.33580728405708
2,2, 5, 4, 0,18,20.00,30.00,Thursday
148,32.800569752559727
596,1.968206409902981
597,75.30511038142432
2,2, 5, 4, 0,18,30.00,40.00,Thursday
148,32.87693811308807
596,1.990619860074417
597,76.33617808604265
2,2, 5, 4, 0,18,40.00,50.00,Thursday
148,32.94414138684609
596,2.009102928559313
597,77.1714770518513
2,2, 5, 4, 0,18,50.00,60.00,Thursday
148,32.88793344457786
596,1.9928704418783419
597,76.43862162677414
2,2, 5, 4, 0,19, 0.00,10.00,Thursday
148,31.413878504348444
596,-18.88606340606523
597,100.0
2,2, 5, 4, 0,19,10.00,20.00,Thursday
148,30.929970353986744
596,-19.709003738157425
597,100.0
2,2, 5, 4, 0,19,20.00,30.00,Thursday
148,30.648630702577063
596,-20.118687917121276
597,100.0
2,2, 5, 4, 0,19,30.00,40.00,Thursday
148,30.447475344140885
596,-20.477352993116367
597,100.0
2,2, 5, 4, 0,19,40.00,50.00,Thursday
148,30.20777627819386
596,-20.921845500478879
597,100.0
2,2, 5, 4, 0,19,50.00,60.00,Thursday
148,30.091365940492805
596,-21.279699304758663
597,100.0
2,2, 5, 4, 0,20, 0.00,10.00,Thursday
148,30.030565657937055
596,-21.497936047670419
597,100.0
2,2, 5, 4, 0,20,10.00,20.00,Thursday
148,29.926342051169095
596,-21.75942903095497
597,100.0
2,2, 5, 4, 0,20,20.00,30.00,Thursday
148,29.797210192934537
596,-22.04649971628195
597,100.0
2,2, 5, 4, 0,20,30.00,40.00,Thursday
148,29.686268441954466
596,-22.28948885172402
597,100.0
2,2, 5, 4, 0,20,40.00,50.00,Thursday
148,29.591508959818119
596,-22.503605787007794
597,100.0
2,2, 5, 4, 0,20,50.00,60.00,Thursday
148,29.526700267659409
596,-22.644653328293598
597,100.0
2,2, 5, 4, 0,21, 0.00,10.00,Thursday
148,29.46784728717375
596,-22.792128639147149
597,100.0
2,2, 5, 4, 0,21,10.00,20.00,Thursday
148,29.408973673249606
596,-22.924003593509764
597,100.0
2,2, 5, 4, 0,21,20.00,30.00,Thursday
148,29.336166062481337
596,-23.09749416590019
597,100.0
2,2, 5, 4, 0,21,30.00,40.00,Thursday
148,29.292447270429855
596,-23.19799559741118
597,100.0
2,2, 5, 4, 0,21,40.00,50.00,Thursday
148,29.24344713417652
596,-23.321295408659254
597,100.0
2,2, 5, 4, 0,21,50.00,60.00,Thursday
148,29.159103723041154
596,-23.520036438819806
597,100.0
2,2, 5, 4, 0,22, 0.00,10.00,Thursday
148,29.028164980849455
596,-23.79110552092504
597,100.0
2,2, 5, 4, 0,22,10.00,20.00,Thursday
148,28.943583164156846
596,-23.963139909994433
597,100.0
2,2, 5, 4, 0,22,20.00,30.00,Thursday
148,28.82597396698637
596,-24.25564440999201
597,100.0
2,2, 5, 4, 0,22,30.00,40.00,Thursday
148,28.791686095518256
596,-24.31801454843685
597,100.0
2,2, 5, 4, 0,22,40.00,50.00,Thursday
148,28.76071946511704
596,-24.442667260186039
597,100.0
2,2, 5, 4, 0,22,50.00,60.00,Thursday
148,28.773281628390785
596,-24.515209896590937
597,100.0
2,2, 5, 4, 0,23, 0.00,10.00,Thursday
148,28.73394982300581
596,-24.647805976330738
597,100.0
2,2, 5, 4, 0,23,10.00,20.00,Thursday
148,28.69502315590479
596,-24.81616718417261
597,100.0
2,2, 5, 4, 0,23,20.00,30.00,Thursday
148,28.622693282505446
596,-25.013003498672388
597,100.0
2,2, 5, 4, 0,23,30.00,40.00,Thursday
148,28.54953782220769
596,-25.235530367979654
597,100.0
2,2, 5, 4, 0,23,40.00,50.00,Thursday
148,28.460389890068073
596,-25.46949504029087
597,100.0
2,2, 5, 4, 0,23,50.00,60.00,Thursday
148,28.40186240950041
596,-25.602085446557294
597,100.0
2,2, 5, 4, 0,24, 0.00,10.00,Thursday
148,28.371309519917177
596,-25.69369781474197
597,100.0
2,2, 5, 4, 0,24,10.00,20.00,Thursday
148,28.267323348563158
596,-25.938107558254438
597,100.0
2,2, 5, 4, 0,24,20.00,30.00,Thursday
148,28.200373746539847
596,-26.138040276241929
597,100.0
2,2, 5, 4, 0,24,30.00,40.00,Thursday
148,28.176270036186293
596,-26.260778037948258
597,100.0
2,2, 5, 4, 0,24,40.00,50.00,Thursday
148,28.121411954762907
596,-26.47786429997774
597,100.0
2,2, 5, 4, 0,24,50.00,60.00,Thursday
148,28.00377053507992
596,-26.73420879968544
597,100.0
2,3, 5, 5, 0, 1, 0.00,10.00,Friday
148,27.89447533538076
596,-27.015281586895207
597,100.0
2,3, 5, 5, 0, 1,10.00,20.00,Friday
148,27.852988613862995
596,-27.138137189532619
597,100.0
2,3, 5, 5, 0, 1,20.00,30.00,Friday
148,27.824583924096065
596,-27.266681484239606
597,100.0
2,3, 5, 5, 0, 1,30.00,40.00,Friday
148,27.803916184426947
596,-27.350079584378844
597,100.0
2,3, 5, 5, 0, 1,40.00,50.00,Friday
148,27.697889924765069
596,-27.632495141458965
597,100.0
2,3, 5, 5, 0, 1,50.00,60.00,Friday
148,27.665234112923604
596,-27.75205000384759
597,100.0
2,3, 5, 5, 0, 2, 0.00,10.00,Friday
148,27.630097557776005
596,-27.89569284518556
597,100.0
2,3, 5, 5, 0, 2,10.00,20.00,Friday
148,27.576277645255236
596,-28.095472443107128
597,100.0
2,3, 5, 5, 0, 2,20.00,30.00,Friday
148,27.449478000999496
596,-28.411425892780785
597,100.0
2,3, 5, 5, 0, 2,30.00,40.00,Friday
148,27.06821501161683
596,-29.205720426948277
597,100.0
2,3, 5, 5, 0, 2,40.00,50.00,Friday
148,26.820649422750657
596,-29.772409871463258
597,100.0
2,3, 5, 5, 0, 2,50.00,60.00,Friday
148,26.529399375431077
596,-30.391555844676149
597,100.0