Program Version,EnergyPlus, Version 9.5.0-de239b2e5f, YMD=2021.12.09 16:29
1,5,Environment Title[],Latitude[deg],Longitude[deg],Time Zone[],Elevation[m]
2,8,Day of Simulation[],Month[],Day of Month[],DST Indicator[1=yes 0=no],Hour[],StartMinute[],EndMinute[],DayType
3,5,Cumulative Day of Simulation[],Month[],Day of Month[],DST Indicator[1=yes 0=no],DayType  ! When Daily Report Variables Requested
4,2,Cumulative Days of Simulation[],Month[]  ! When Monthly Report Variables Requested
5,1,Cumulative Days of Simulation[] ! When Run Period Report Variables Requested
6,1,Calendar Year of Simulation[] ! When Annual Report Variables Requested
148,1,THERMAL ZONE: JORGE,Zone Mean Air Temperature [C] !TimeStep
596,1,JORGE,Zone Thermal Comfort Fanger Model PMV [] !TimeStep
597,1,JORGE,Zone Thermal Comfort Fanger Model PPD [%] !TimeStep
End of Data Dictionary
1,RUN PERIOD 1,  18.85, -99.14,  -6.00,1280.00
2,1, 5, 3, 0, 1, 0.00,10.00,Wednesday
148,26.40245655733431
596,-31.1307470747484
597,100.0
2,1, 5, 3, 0, 1,10.00,20.00,Wednesday
148,26.369105062537206
596,-31.264974312149865
597,100.0
2,1, 5, 3, 0, 1,20.00,30.00,Wednesday
148,26.396223162358504
596,-31.261121840973677
597,100.0
2,1, 5, 3, 0, 1,30.00,40.00,Wednesday
148,26.37023302641502
596,-31.380874880727395
597,100.0
2,1, 5, 3, 0, 1,40.00,50.00,Wednesday
148,26.25801850769076
596,-31.647487227403916
597,100.0
2,1, 5, 3, 0, 1,50.00,60.00,Wednesday
148,26.05714578594955
596,-32.07613910679384
597,100.0
2,1, 5, 3, 0, 2, 0.00,10.00,Wednesday
148,25.89254207852684
596,-32.45421593400933
597,100.0
2,1, 5, 3, 0, 2,10.00,20.00,Wednesday
148,25.780577513118936
596,-32.74434985515077
597,100.0
2,1, 5, 3, 0, 2,20.00,30.00,Wednesday
148,25.53868645330354
596,-33.26267397882834
597,100.0
2,1, 5, 3, 0, 2,30.00,40.00,Wednesday
148,25.40780652271149
596,-33.57926802802995
597,100.0
2,1, 5, 3, 0, 2,40.00,50.00,Wednesday
148,25.36973425941824
596,-33.72035853747799
597,100.0
2,1, 5, 3, 0, 2,50.00,60.00,Wednesday
148,25.422978355820946
596,-33.709633845826818
597,100.0
2,1, 5, 3, 0, 3, 0.00,10.00,Wednesday
148,25.44895912877405
596,-33.74592070999568
597,100.0
2,1, 5, 3, 0, 3,10.00,20.00,Wednesday
148,25.589491491156254
596,-33.56681301206197
597,100.0
2,1, 5, 3, 0, 3,20.00,30.00,Wednesday
148,25.69227089877371
596,-33.43996140628937
597,100.0
2,1, 5, 3, 0, 3,30.00,40.00,Wednesday
148,25.62741830592818
596,-33.63332811762109
597,100.0
2,1, 5, 3, 0, 3,40.00,50.00,Wednesday
148,25.564728171970413
596,-33.80416408169026
597,100.0
2,1, 5, 3, 0, 3,50.00,60.00,Wednesday
148,25.504563010399118
596,-33.998792420214538
597,100.0
2,1, 5, 3, 0, 4, 0.00,10.00,Wednesday
148,25.447175504486933
596,-34.17802592780982
597,100.0
2,1, 5, 3, 0, 4,10.00,20.00,Wednesday
148,25.337785573265806
596,-34.43408043572737
597,100.0
2,1, 5, 3, 0, 4,20.00,30.00,Wednesday
148,25.31404922898571
596,-34.57782265810399
597,100.0
2,1, 5, 3, 0, 4,30.00,40.00,Wednesday
148,25.024446820704875
596,-35.19070083507001
597,100.0
2,1, 5, 3, 0, 4,40.00,50.00,Wednesday
148,24.637508407477374
596,-36.03113057751866
597,100.0
2,1, 5, 3, 0, 4,50.00,60.00,Wednesday
148,24.475814215158203
596,-36.4272110332327
597,100.0
2,1, 5, 3, 0, 5, 0.00,10.00,Wednesday
148,24.407415865804646
596,-36.65941343103437
597,100.0
2,1, 5, 3, 0, 5,10.00,20.00,Wednesday
148,24.591264071309117
596,-36.411939638155327
597,100.0
2,1, 5, 3, 0, 5,20.00,30.00,Wednesday
148,24.754780601750796
596,-36.148740366536419
597,100.0
2,1, 5, 3, 0, 5,30.00,40.00,Wednesday
148,24.866213607856865
596,-36.007028150994937
597,100.0
2,1, 5, 3, 0, 5,40.00,50.00,Wednesday
148,24.789285855863278
596,-36.175143907729928
597,100.0
2,1, 5, 3, 0, 5,50.00,60.00,Wednesday
148,24.533246612066578
596,-36.74404734395228
597,100.0
2,1, 5, 3, 0, 6, 0.00,10.00,Wednesday
148,24.319740418318749
596,-37.20619473512056
597,100.0
2,1, 5, 3, 0, 6,10.00,20.00,Wednesday
148,24.106847989942929
596,-37.75175222468553
597,100.0
2,1, 5, 3, 0, 6,20.00,30.00,Wednesday
148,24.061392683358848
596,-37.90539913027638
597,100.0
2,1, 5, 3, 0, 6,30.00,40.00,Wednesday
148,23.88693072641183
596,-38.365378391136399
597,100.0
2,1, 5, 3, 0, 6,40.00,50.00,Wednesday
148,23.708969179593028
596,-38.7655448767115
597,100.0
2,1, 5, 3, 0, 6,50.00,60.00,Wednesday
148,23.58679964750867
596,-39.08635034043781
597,100.0
2,1, 5, 3, 0, 7, 0.00,10.00,Wednesday
148,23.634384220225628
596,-39.06068423178014
597,100.0
2,1, 5, 3, 0, 7,10.00,20.00,Wednesday
148,23.815588243298657
596,-38.75660857527397
597,100.0
2,1, 5, 3, 0, 7,20.00,30.00,Wednesday
148,23.892481799935397
596,-38.68668827147935
597,100.0
2,1, 5, 3, 0, 7,30.00,40.00,Wednesday
148,23.550898544294499
596,-39.4000151725938
597,100.0
2,1, 5, 3, 0, 7,40.00,50.00,Wednesday
148,23.37948705350511
596,-39.77497119773986
597,100.0
2,1, 5, 3, 0, 7,50.00,60.00,Wednesday
148,23.770497256605883
596,-39.02617359186978
597,100.0
2,1, 5, 3, 0, 8, 0.00,10.00,Wednesday
148,23.98551027186656
596,-38.593679064269519
597,100.0
2,1, 5, 3, 0, 8,10.00,20.00,Wednesday
148,23.74373578281473
596,-39.051175722564597
597,100.0
2,1, 5, 3, 0, 8,20.00,30.00,Wednesday
148,23.797160274829733
596,-38.90407142392533
597,100.0
2,1, 5, 3, 0, 8,30.00,40.00,Wednesday
148,23.94155652747826
596,-38.56822786992289
597,100.0
2,1, 5, 3, 0, 8,40.00,50.00,Wednesday
148,24.164111271769735
596,-38.05137050802104
597,100.0
2,1, 5, 3, 0, 8,50.00,60.00,Wednesday
148,24.42165934682304
596,-37.45381782736091
597,100.0
2,1, 5, 3, 0, 9, 0.00,10.00,Wednesday
148,24.93249506631672
596,-36.33782406637998
597,100.0
2,1, 5, 3, 0, 9,10.00,20.00,Wednesday
148,25.200824853939396
596,-35.78101506882473
597,100.0
2,1, 5, 3, 0, 9,20.00,30.00,Wednesday
148,25.286310844796373
596,-35.549283541291597
597,100.0
2,1, 5, 3, 0, 9,30.00,40.00,Wednesday
148,25.327280678001999
596,-35.378823028139589
597,100.0
2,1, 5, 3, 0, 9,40.00,50.00,Wednesday
148,25.405868889975428
596,-35.10552996534317
597,100.0
2,1, 5, 3, 0, 9,50.00,60.00,Wednesday
148,25.508089557636848
596,-34.8050523505015
597,100.0
2,1, 5, 3, 0,10, 0.00,10.00,Wednesday
148,27.7371447292371
596,0.08902503164272331
597,5.164119061233649
2,1, 5, 3, 0,10,10.00,20.00,Wednesday
148,28.018963020444
596,0.202545777880471
597,5.850762407128954
2,1, 5, 3, 0,10,20.00,30.00,Wednesday
148,28.327750857780587
596,0.28194334145595759
597,6.651136173688528
2,1, 5, 3, 0,10,30.00,40.00,Wednesday
148,28.826970818036537
596,0.42286000387644986
597,8.728187647907774
2,1, 5, 3, 0,10,40.00,50.00,Wednesday
148,28.96553173749704
596,0.48906778723984298
597,9.997296516663966
2,1, 5, 3, 0,10,50.00,60.00,Wednesday
148,28.921964547837356
596,0.5034326220685044
597,10.297594352976546
2,1, 5, 3, 0,11, 0.00,10.00,Wednesday
148,28.85633327862299
596,0.49493031370846876
597,10.118776467796679
2,1, 5, 3, 0,11,10.00,20.00,Wednesday
148,29.07356668672465
596,0.5641736031685163
597,11.66607970849995
2,1, 5, 3, 0,11,20.00,30.00,Wednesday
148,29.315571785592185
596,0.6442505511022474
597,13.714700215090119
2,1, 5, 3, 0,11,30.00,40.00,Wednesday
148,29.44007186025962
596,0.6961567387372065
597,15.191150320960759
2,1, 5, 3, 0,11,40.00,50.00,Wednesday
148,29.509642155585728
596,0.7313060217586814
597,16.25706029849266
2,1, 5, 3, 0,11,50.00,60.00,Wednesday
148,29.61415247971771
596,0.7721028481986512
597,17.560781792559696
2,1, 5, 3, 0,12, 0.00,10.00,Wednesday
148,29.776166797198678
596,0.8298193346264133
597,19.52617317021827
2,1, 5, 3, 0,12,10.00,20.00,Wednesday
148,29.870725407439964
596,0.8610815541206335
597,20.649176866955373
2,1, 5, 3, 0,12,20.00,30.00,Wednesday
148,30.09466832521941
596,0.9379484184901097
597,23.58116088004354
2,1, 5, 3, 0,12,30.00,40.00,Wednesday
148,30.21763562285137
596,0.981465789235587
597,25.34579903638459
2,1, 5, 3, 0,12,40.00,50.00,Wednesday
148,30.411347322751579
596,1.0473415961842312
597,28.154906879342847
2,1, 5, 3, 0,12,50.00,60.00,Wednesday
148,30.58795984051067
596,1.1080647317020942
597,30.88368568944533
2,1, 5, 3, 0,13, 0.00,10.00,Wednesday
148,30.80037935999985
596,1.182397372127898
597,34.391732212019508
2,1, 5, 3, 0,13,10.00,20.00,Wednesday
148,30.922334829546594
596,1.2261492122082616
597,36.535049895739408
2,1, 5, 3, 0,13,20.00,30.00,Wednesday
148,31.00241105368423
596,1.2680593652470205
597,38.6371461256437
2,1, 5, 3, 0,13,30.00,40.00,Wednesday
148,31.075456526864586
596,1.2804973979628083
597,39.269525444422388
2,1, 5, 3, 0,13,40.00,50.00,Wednesday
148,31.19515753629375
596,1.2976965462458248
597,40.149987626193958
2,1, 5, 3, 0,13,50.00,60.00,Wednesday
148,31.27704412380101
596,1.3272120695396197
597,41.676264984933549
2,1, 5, 3, 0,14, 0.00,10.00,Wednesday
148,31.295472791830084
596,1.3696804145743078
597,43.90293943416697
2,1, 5, 3, 0,14,10.00,20.00,Wednesday
148,31.43629437160185
596,1.443651359725991
597,47.85103173495731
2,1, 5, 3, 0,14,20.00,30.00,Wednesday
148,31.584472736977735
596,1.4967658140799809
597,50.7244794487629
2,1, 5, 3, 0,14,30.00,40.00,Wednesday
148,31.671915835354257
596,1.5327842610623479
597,52.68357957779751
2,1, 5, 3, 0,14,40.00,50.00,Wednesday
148,31.89695314280945
596,1.596021417589184
597,56.128761857451618
2,1, 5, 3, 0,14,50.00,60.00,Wednesday
148,32.232596074600028
596,1.668320191532135
597,60.04914288710226
2,1, 5, 3, 0,15, 0.00,10.00,Wednesday
148,31.9721592370847
596,0.6534470482465773
597,13.967785363325305
2,1, 5, 3, 0,15,10.00,20.00,Wednesday
148,31.993793490235406
596,0.7034682120611517
597,15.408484969295799
2,1, 5, 3, 0,15,20.00,30.00,Wednesday
148,32.20610116173139
596,0.847094558545719
597,20.141702570761227
2,1, 5, 3, 0,15,30.00,40.00,Wednesday
148,32.32883838949864
596,0.943156047448753
597,23.788411158437229
2,1, 5, 3, 0,15,40.00,50.00,Wednesday
148,32.416585805851287
596,0.9826166164981403
597,25.39346584765677
2,1, 5, 3, 0,15,50.00,60.00,Wednesday
148,32.53454635906271
596,1.062824995666379
597,28.838368502719363
2,1, 5, 3, 0,16, 0.00,10.00,Wednesday
148,32.63846322857114
596,1.1507556890705384
597,32.876996347954037
2,1, 5, 3, 0,16,10.00,20.00,Wednesday
148,32.733896313152978
596,1.199158713104997
597,35.20634642250202
2,1, 5, 3, 0,16,20.00,30.00,Wednesday
148,32.748786187724217
596,1.1986254486225008
597,35.18030285211928
2,1, 5, 3, 0,16,30.00,40.00,Wednesday
148,32.782228998023359
596,1.2264542280118194
597,36.55018120273548
2,1, 5, 3, 0,16,40.00,50.00,Wednesday
148,32.88794118959276
596,1.2521774655367764
597,37.83521409021804
2,1, 5, 3, 0,16,50.00,60.00,Wednesday
148,32.72236085929261
596,1.1462584197709885
597,32.66423180952411
2,1, 5, 3, 0,17, 0.00,10.00,Wednesday
148,32.544634537296889
596,1.994689644399873
597,76.52128187647462
2,1, 5, 3, 0,17,10.00,20.00,Wednesday
148,32.3435677640272
596,1.9400590438332884
597,73.9832952159691
2,1, 5, 3, 0,17,20.00,30.00,Wednesday
148,32.037503445923977
596,1.849732982647198
597,69.55863907928745
2,1, 5, 3, 0,17,30.00,40.00,Wednesday
148,31.83013807923745
596,1.7843573918617575
597,66.2091310212619
2,1, 5, 3, 0,17,40.00,50.00,Wednesday
148,31.772543443881717
596,1.758030691043052
597,64.83214539556022
2,1, 5, 3, 0,17,50.00,60.00,Wednesday
148,31.82536177813715
596,1.7737837584346985
597,65.65783023197574
2,1, 5, 3, 0,18, 0.00,10.00,Wednesday
148,31.733164768867224
596,1.7528351242314409
597,64.55874231181466
2,1, 5, 3, 0,18,10.00,20.00,Wednesday
148,31.62798857049804
596,1.7379810097576137
597,63.77429792277365
2,1, 5, 3, 0,18,20.00,30.00,Wednesday
148,31.63038811397921
596,1.7499904489432193
597,64.40883032087624
2,1, 5, 3, 0,18,30.00,40.00,Wednesday
148,31.67337972895207
596,1.7673332326204146
597,65.3203412737232
2,1, 5, 3, 0,18,40.00,50.00,Wednesday
148,31.755245953646278
596,1.7920686265355468
597,66.60963841643114
2,1, 5, 3, 0,18,50.00,60.00,Wednesday
148,31.89188200987628
596,1.8278451394231834
597,68.4493617285399
2,1, 5, 3, 0,19, 0.00,10.00,Wednesday
148,30.32731160070457
596,-20.905264271366833
597,100.0
2,1, 5, 3, 0,19,10.00,20.00,Wednesday
148,29.93518978352124
596,-21.660595789597818
597,100.0
2,1, 5, 3, 0,19,20.00,30.00,Wednesday
148,29.73315379183412
596,-22.080862147276535
597,100.0
2,1, 5, 3, 0,19,30.00,40.00,Wednesday
148,29.260221903028886
596,-22.803772071605537
597,100.0
2,1, 5, 3, 0,19,40.00,50.00,Wednesday
148,28.993468223833064
596,-23.305576622053907
597,100.0
2,1, 5, 3, 0,19,50.00,60.00,Wednesday
148,28.920715989206966
596,-23.611462711117257
597,100.0
2,1, 5, 3, 0,20, 0.00,10.00,Wednesday
148,28.906238085469885
596,-23.753502904659567
597,100.0
2,1, 5, 3, 0,20,10.00,20.00,Wednesday
148,28.84205918722114
596,-23.960834814982936
597,100.0
2,1, 5, 3, 0,20,20.00,30.00,Wednesday
148,28.675120181529239
596,-24.341306910084499
597,100.0
2,1, 5, 3, 0,20,30.00,40.00,Wednesday
148,28.512157061231087
596,-24.697864445733758
597,100.0
2,1, 5, 3, 0,20,40.00,50.00,Wednesday
148,28.24812336657551
596,-25.238775514718129
597,100.0
2,1, 5, 3, 0,20,50.00,60.00,Wednesday
148,28.113103054537399
596,-25.612722691529539
597,100.0
2,1, 5, 3, 0,21, 0.00,10.00,Wednesday
148,27.95423891817603
596,-26.007958417991238
597,100.0
2,1, 5, 3, 0,21,10.00,20.00,Wednesday
148,27.8083334894976
596,-26.365538530039
597,100.0
2,1, 5, 3, 0,21,20.00,30.00,Wednesday
148,27.564449056981645
596,-26.927799046733193
597,100.0
2,1, 5, 3, 0,21,30.00,40.00,Wednesday
148,27.160911940388357
596,-27.737156394513489
597,100.0
2,1, 5, 3, 0,21,40.00,50.00,Wednesday
148,27.260292119040085
596,-27.67556737557924
597,100.0
2,1, 5, 3, 0,21,50.00,60.00,Wednesday
148,27.1589014280893
596,-27.962587306625094
597,100.0
2,1, 5, 3, 0,22, 0.00,10.00,Wednesday
148,27.167450337531855
596,-28.01428603694263
597,100.0
2,1, 5, 3, 0,22,10.00,20.00,Wednesday
148,27.112352418300337
596,-28.185229331342368
597,100.0
2,1, 5, 3, 0,22,20.00,30.00,Wednesday
148,26.88605351241941
596,-28.753223480001976
597,100.0
2,1, 5, 3, 0,22,30.00,40.00,Wednesday
148,26.784449449338646
596,-29.050137213380233
597,100.0
2,1, 5, 3, 0,22,40.00,50.00,Wednesday
148,26.860607603614097
596,-28.99551142282687
597,100.0
2,1, 5, 3, 0,22,50.00,60.00,Wednesday
148,26.8442406203583
596,-29.11142418141215
597,100.0
2,1, 5, 3, 0,23, 0.00,10.00,Wednesday
148,27.015986287257733
596,-28.9263392950388
597,100.0
2,1, 5, 3, 0,23,10.00,20.00,Wednesday
148,26.96544534820928
596,-29.028995119128106
597,100.0
2,1, 5, 3, 0,23,20.00,30.00,Wednesday
148,26.8927191036556
596,-29.246247725600357
597,100.0
2,1, 5, 3, 0,23,30.00,40.00,Wednesday
148,27.018966495621436
596,-29.172553721287483
597,100.0
2,1, 5, 3, 0,23,40.00,50.00,Wednesday
148,27.059817434382649
596,-29.17082252226379
597,100.0
2,1, 5, 3, 0,23,50.00,60.00,Wednesday
148,26.992473502251813
596,-29.33106120980324
597,100.0
2,1, 5, 3, 0,24, 0.00,10.00,Wednesday
148,27.002383005388749
596,-29.384227309362449
597,100.0
2,1, 5, 3, 0,24,10.00,20.00,Wednesday
148,27.02513557555628
596,-29.429569349398724
597,100.0
2,1, 5, 3, 0,24,20.00,30.00,Wednesday
148,26.927970943285417
596,-29.665444271778936
597,100.0
2,1, 5, 3, 0,24,30.00,40.00,Wednesday
148,26.86423489551102
596,-29.84054846979503
597,100.0
2,1, 5, 3, 0,24,40.00,50.00,Wednesday
148,26.731671527841269
596,-30.14451296908186
597,100.0
2,1, 5, 3, 0,24,50.00,60.00,Wednesday
148,26.670328880331135
596,-30.320532514899989
597,100.0
2,2, 5, 4, 0, 1, 0.00,10.00,Thursday
148,26.84544253875677
596,-30.114570975863424
597,100.0
2,2, 5, 4, 0, 1,10.00,20.00,Thursday
148,26.938048683191107
596,-30.043815652669708
597,100.0
2,2, 5, 4, 0, 1,20.00,30.00,Thursday
148,26.814278655122739
596,-30.310225340055046
597,100.0
2,2, 5, 4, 0, 1,30.00,40.00,Thursday
148,26.577405084928555
596,-30.796804094434568
597,100.0
2,2, 5, 4, 0, 1,40.00,50.00,Thursday
148,26.52140630386695
596,-30.94831060269973
597,100.0
2,2, 5, 4, 0, 1,50.00,60.00,Thursday
148,26.577938845810885
596,-30.913105277998875
597,100.0
2,2, 5, 4, 0, 2, 0.00,10.00,Thursday
148,26.67419909327554
596,-30.80740727414797
597,100.0
2,2, 5, 4, 0, 2,10.00,20.00,Thursday
148,26.6507547186152
596,-30.905140853185889
597,100.0
2,2, 5, 4, 0, 2,20.00,30.00,Thursday
148,26.631210401644425
596,-30.98335893688807
597,100.0
2,2, 5, 4, 0, 2,30.00,40.00,Thursday
148,26.55696334393145
596,-31.173453961642747
597,100.0
2,2, 5, 4, 0, 2,40.00,50.00,Thursday
148,26.46415753869094
596,-31.389210312470234
597,100.0
2,2, 5, 4, 0, 2,50.00,60.00,Thursday
148,26.400846672076015
596,-31.568731582400785
597,100.0
2,2, 5, 4, 0, 3, 0.00,10.00,Thursday
148,26.41239633060718
596,-31.629941473989939
597,100.0
2,2, 5, 4, 0, 3,10.00,20.00,Thursday
148,26.294905677726335
596,-31.923853004242518
597,100.0
2,2, 5, 4, 0, 3,20.00,30.00,Thursday
148,26.272065456007817
596,-32.05129492791295
597,100.0
2,2, 5, 4, 0, 3,30.00,40.00,Thursday
148,26.098798568944209
596,-32.42878031231884
597,100.0
2,2, 5, 4, 0, 3,40.00,50.00,Thursday
148,25.95238342363092
596,-32.74892487493989
597,100.0
2,2, 5, 4, 0, 3,50.00,60.00,Thursday
148,25.96890326221972
596,-32.825997215192277
597,100.0
2,2, 5, 4, 0, 4, 0.00,10.00,Thursday
148,25.911412256065295
596,-33.02172577557688
597,100.0
2,2, 5, 4, 0, 4,10.00,20.00,Thursday
148,25.804799829865496
596,-33.289731417271287
597,100.0
2,2, 5, 4, 0, 4,20.00,30.00,Thursday
148,25.708706434284978
596,-33.54284100401258
597,100.0
2,2, 5, 4, 0, 4,30.00,40.00,Thursday
148,25.585950250762044
596,-33.84148043261091
597,100.0
2,2, 5, 4, 0, 4,40.00,50.00,Thursday
148,25.498720788356868
596,-34.05660790300866
597,100.0
2,2, 5, 4, 0, 4,50.00,60.00,Thursday
148,25.477205835994874
596,-34.13783366948716
597,100.0
2,2, 5, 4, 0, 5, 0.00,10.00,Thursday
148,25.404443010086405
596,-34.370583816427608
597,100.0
2,2, 5, 4, 0, 5,10.00,20.00,Thursday
148,25.30052291442214
596,-34.635297003572969
597,100.0
2,2, 5, 4, 0, 5,20.00,30.00,Thursday
148,25.14545783953387
596,-34.94698296070685
597,100.0
2,2, 5, 4, 0, 5,30.00,40.00,Thursday
148,25.079257602780819
596,-35.13058502916912
597,100.0
2,2, 5, 4, 0, 5,40.00,50.00,Thursday
148,25.069737235848899
596,-35.25343102928134
597,100.0
2,2, 5, 4, 0, 5,50.00,60.00,Thursday
148,25.007305017152694
596,-35.454779613570057
597,100.0
2,2, 5, 4, 0, 6, 0.00,10.00,Thursday
148,25.026814379260978
596,-35.46424750050782
597,100.0
2,2, 5, 4, 0, 6,10.00,20.00,Thursday
148,24.711001337267246
596,-36.15078853381998
597,100.0
2,2, 5, 4, 0, 6,20.00,30.00,Thursday
148,24.487834615593305
596,-36.64442197004248
597,100.0
2,2, 5, 4, 0, 6,30.00,40.00,Thursday
148,24.25840564247801
596,-37.18568005793692
597,100.0
2,2, 5, 4, 0, 6,40.00,50.00,Thursday
148,24.084755827828
596,-37.593452089863287
597,100.0
2,2, 5, 4, 0, 6,50.00,60.00,Thursday
148,24.1305519352478
596,-37.538957177155598
597,100.0
2,2, 5, 4, 0, 7, 0.00,10.00,Thursday
148,24.363943838916044
596,-37.15810797753662
597,100.0
2,2, 5, 4, 0, 7,10.00,20.00,Thursday
148,24.59829469043881
596,-36.75574268012564
597,100.0
2,2, 5, 4, 0, 7,20.00,30.00,Thursday
148,24.39960684801395
596,-37.15785969397355
597,100.0
2,2, 5, 4, 0, 7,30.00,40.00,Thursday
148,24.51545531345272
596,-37.01974530137057
597,100.0
2,2, 5, 4, 0, 7,40.00,50.00,Thursday
148,24.645982698918997
596,-36.775254877843178
597,100.0
2,2, 5, 4, 0, 7,50.00,60.00,Thursday
148,24.730371931982068
596,-36.62589842473237
597,100.0
2,2, 5, 4, 0, 8, 0.00,10.00,Thursday
148,24.745940354826275
596,-36.6013922990646
597,100.0
2,2, 5, 4, 0, 8,10.00,20.00,Thursday
148,24.675626955736037
596,-36.709950620442338
597,100.0
2,2, 5, 4, 0, 8,20.00,30.00,Thursday
148,24.58589968319847
596,-36.853263560026459
597,100.0
2,2, 5, 4, 0, 8,30.00,40.00,Thursday
148,24.63032485586013
596,-36.70932221715059
597,100.0
2,2, 5, 4, 0, 8,40.00,50.00,Thursday
148,24.76752005699276
596,-36.35957903901378
597,100.0
2,2, 5, 4, 0, 8,50.00,60.00,Thursday
148,25.02454493651385
596,-35.81323090583321
597,100.0
2,2, 5, 4, 0, 9, 0.00,10.00,Thursday
148,25.146283012733169
596,-35.51885712687415
597,100.0
2,2, 5, 4, 0, 9,10.00,20.00,Thursday
148,25.283869506967834
596,-35.27465690509099
597,100.0
2,2, 5, 4, 0, 9,20.00,30.00,Thursday
148,25.481545218330635
596,-34.77011081953733
597,100.0
2,2, 5, 4, 0, 9,30.00,40.00,Thursday
148,25.6745284350691
596,-34.3101792583191
597,100.0
2,2, 5, 4, 0, 9,40.00,50.00,Thursday
148,25.82046777867428
596,-33.911545059752707
597,100.0
2,2, 5, 4, 0, 9,50.00,60.00,Thursday
148,25.891639477231796
596,-33.77335478387196
597,100.0
2,2, 5, 4, 0,10, 0.00,10.00,Thursday
148,27.91153776966719
596,0.1349786551431256
597,5.377452832066737
2,2, 5, 4, 0,10,10.00,20.00,Thursday
148,28.067334309801209
596,0.20979392929029007
597,5.912857788909491
2,2, 5, 4, 0,10,20.00,30.00,Thursday
148,28.3837211107394
596,0.2943996831096813
597,6.800778452266144
2,2, 5, 4, 0,10,30.00,40.00,Thursday
148,28.811034147408987
596,0.409070344481614
597,8.487560957396497
2,2, 5, 4, 0,10,40.00,50.00,Thursday
148,28.93729882643657
596,0.46819406700223245
597,9.57680480361141
2,2, 5, 4, 0,10,50.00,60.00,Thursday
148,29.008729425510404
596,0.5134100171880937
597,10.51142057073524
2,2, 5, 4, 0,11, 0.00,10.00,Thursday
148,29.114037959202343
596,0.5604324326155306
597,11.57717188745363
2,2, 5, 4, 0,11,10.00,20.00,Thursday
148,29.213018587746427
596,0.601354355931236
597,12.582674236860953
2,2, 5, 4, 0,11,20.00,30.00,Thursday
148,29.310962893140724
596,0.6378167112072265
597,13.539822893968989
2,2, 5, 4, 0,11,30.00,40.00,Thursday
148,29.463307691086766
596,0.6940749687880099
597,15.129691581502584
2,2, 5, 4, 0,11,40.00,50.00,Thursday
148,29.589658893954156
596,0.7315138795554932
597,16.263521845778159
2,2, 5, 4, 0,11,50.00,60.00,Thursday
148,29.73825474589703
596,0.7908922813196582
597,18.185125561684175
2,2, 5, 4, 0,12, 0.00,10.00,Thursday
148,29.911166872683624
596,0.8563807382916933
597,20.47771655010429
2,2, 5, 4, 0,12,10.00,20.00,Thursday
148,30.10808635872001
596,0.9169626048752474
597,22.756936623060939
2,2, 5, 4, 0,12,20.00,30.00,Thursday
148,30.270334084664055
596,0.9820064778661265
597,25.368187796377315
2,2, 5, 4, 0,12,30.00,40.00,Thursday
148,30.47066316818698
596,1.040820510779515
597,27.86964766181464
2,2, 5, 4, 0,12,40.00,50.00,Thursday
148,30.53693876037501
596,1.073326072341601
597,29.306772442289615
2,2, 5, 4, 0,12,50.00,60.00,Thursday
148,30.572815576556918
596,1.0932307881142032
597,30.205239169773095
2,2, 5, 4, 0,13, 0.00,10.00,Thursday
148,30.703600180905704
596,1.1366981383196445
597,32.2140804745877
2,2, 5, 4, 0,13,10.00,20.00,Thursday
148,30.93993741705593
596,1.2261633584461738
597,36.535751610050677
2,2, 5, 4, 0,13,20.00,30.00,Thursday
148,31.07429033229459
596,1.2668585114014009
597,38.5762909469214
2,2, 5, 4, 0,13,30.00,40.00,Thursday
148,31.190830847128809
596,1.3090410301299456
597,40.734403517287137
2,2, 5, 4, 0,13,40.00,50.00,Thursday
148,31.290992115375898
596,1.3412398516769398
597,42.40798785892844
2,2, 5, 4, 0,13,50.00,60.00,Thursday
148,31.436412134261027
596,1.3897334276559417
597,44.9654088834128
2,2, 5, 4, 0,14, 0.00,10.00,Thursday
148,31.54265621659142
596,1.433645012674704
597,47.312716735074868
2,2, 5, 4, 0,14,10.00,20.00,Thursday
148,31.629568971742829
596,1.4534762134396209
597,48.380639751909608
2,2, 5, 4, 0,14,20.00,30.00,Thursday
148,31.670939210279085
596,1.4639630042113555
597,48.946989758990948
2,2, 5, 4, 0,14,30.00,40.00,Thursday
148,31.704322320533508
596,1.4802689096152216
597,49.82954339207686
2,2, 5, 4, 0,14,40.00,50.00,Thursday
148,31.753833748264044
596,1.48546441082123
597,50.11119007495757
2,2, 5, 4, 0,14,50.00,60.00,Thursday
148,31.905835550532907
596,1.563736475604377
597,54.37004383954225
2,2, 5, 4, 0,15, 0.00,10.00,Thursday
148,32.109447612934307
596,0.720190033986146
597,15.914211038215868
2,2, 5, 4, 0,15,10.00,20.00,Thursday
148,32.0917329086315
596,0.7215638908049511
597,15.956296819634958
2,2, 5, 4, 0,15,20.00,30.00,Thursday
148,32.11461082840002
596,0.7222843214976066
597,15.978398470451623
2,2, 5, 4, 0,15,30.00,40.00,Thursday
148,32.13081696020618
596,0.7178102710260996
597,15.841503327828918
2,2, 5, 4, 0,15,40.00,50.00,Thursday
148,32.16387096171411
596,0.7567349736404979
597,17.061315928777476
2,2, 5, 4, 0,15,50.00,60.00,Thursday
148,32.23864436337515
596,0.8116202566663511
597,18.89125518620591
2,2, 5, 4, 0,16, 0.00,10.00,Thursday
148,32.44946306107188
596,0.9358947854220013
597,23.499727614672979
2,2, 5, 4, 0,16,10.00,20.00,Thursday
148,32.638980041901948
596,1.0547391251546517
597,28.480370487986194
2,2, 5, 4, 0,16,20.00,30.00,Thursday
148,32.76032883795912
596,1.1197675300526167
597,31.42416084656692
2,2, 5, 4, 0,16,30.00,40.00,Thursday
148,32.8179308387525
596,1.1592811734459583
597,33.28208331297961
2,2, 5, 4, 0,16,40.00,50.00,Thursday
148,32.82370735247919
596,1.140232527287418
597,32.380157714764099
2,2, 5, 4, 0,16,50.00,60.00,Thursday
148,32.757421673512137
596,1.1018026933268177
597,30.5963723376328
2,2, 5, 4, 0,17, 0.00,10.00,Thursday
148,32.785912593227397
596,1.991341286042438
597,76.36903838271319
2,2, 5, 4, 0,17,10.00,20.00,Thursday
148,32.921400316670567
596,2.0241088736895138
597,77.83936349497023
2,2, 5, 4, 0,17,20.00,30.00,Thursday
148,32.852255735981469
596,2.007342226845696
597,77.09250253955136
2,2, 5, 4, 0,17,30.00,40.00,Thursday
148,32.89987676918346
596,2.016478297776039
597,77.50090752882801
2,2, 5, 4, 0,17,40.00,50.00,Thursday
148,32.84506290974153
596,2.0039366673561798
597,76.93939059425769
2,2, 5, 4, 0,17,50.00,60.00,Thursday
148,32.80854790735072
596,1.9688572513170722
597,75.3353240584691
2,2, 5, 4, 0,18, 0.00,10.00,Thursday
148,32.75342552237933
596,1.9592885786332482
597,74.88950741406987
2,2, 5, 4, 0,18,10.00,20.00,Thursday
148,32.7613807786864
596,1.9634956686336185
597,75.08594669080546
2,2, 5, 4, 0,18,20.00,30.00,Thursday
148,32.81137183119577
596,1.9823030626913583
597,75.955870631597
2,2, 5, 4, 0,18,30.00,40.00,Thursday
148,32.88689874108098
596,2.000613298523643
597,76.78951976082283
2,2, 5, 4, 0,18,40.00,50.00,Thursday
148,32.953953750981359
596,2.0160093237955549
597,77.48002704888218
2,2, 5, 4, 0,18,50.00,60.00,Thursday
148,32.897619457215927
596,1.9980383338627633
597,76.67309218850667
2,2, 5, 4, 0,19, 0.00,10.00,Thursday
148,31.424280314001117
596,-18.847763897226206
597,100.0
2,2, 5, 4, 0,19,10.00,20.00,Thursday
148,30.940570295702338
596,-19.67153112159468
597,100.0
2,2, 5, 4, 0,19,20.00,30.00,Thursday
148,30.658642164922719
596,-20.083907915796435
597,100.0
2,2, 5, 4, 0,19,30.00,40.00,Thursday
148,30.457899066650456
596,-20.442691435513546
597,100.0
2,2, 5, 4, 0,19,40.00,50.00,Thursday
148,30.217855881294189
596,-20.889140412974738
597,100.0
2,2, 5, 4, 0,19,50.00,60.00,Thursday
148,30.10087848242389
596,-21.249299984366624
597,100.0
2,2, 5, 4, 0,20, 0.00,10.00,Thursday
148,30.039561007370634
596,-21.469491753456074
597,100.0
2,2, 5, 4, 0,20,10.00,20.00,Thursday
148,29.935188215140589
596,-21.732070951657769
597,100.0
2,2, 5, 4, 0,20,20.00,30.00,Thursday
148,29.805961035725536
596,-22.019882431253966
597,100.0
2,2, 5, 4, 0,20,30.00,40.00,Thursday
148,29.694624288814237
596,-22.263932058347128
597,100.0
2,2, 5, 4, 0,20,40.00,50.00,Thursday
148,29.59937738079505
596,-22.47920630192259
597,100.0
2,2, 5, 4, 0,20,50.00,60.00,Thursday
148,29.5344761241846
596,-22.620807579700544
597,100.0
2,2, 5, 4, 0,21, 0.00,10.00,Thursday
148,29.475500544242615
596,-22.768829393947848
597,100.0
2,2, 5, 4, 0,21,10.00,20.00,Thursday
148,29.416285793652098
596,-22.901541853147906
597,100.0
2,2, 5, 4, 0,21,20.00,30.00,Thursday
148,29.34303209129353
596,-23.075995043716259
597,100.0
2,2, 5, 4, 0,21,30.00,40.00,Thursday
148,29.29911599350202
596,-23.17716983881952
597,100.0
2,2, 5, 4, 0,21,40.00,50.00,Thursday
148,29.2498275487893
596,-23.30121210882597
597,100.0
2,2, 5, 4, 0,21,50.00,60.00,Thursday
148,29.165095561861177
596,-23.50080114391126
597,100.0
2,2, 5, 4, 0,22, 0.00,10.00,Thursday
148,29.03398015111675
596,-23.772396980237365
597,100.0
2,2, 5, 4, 0,22,10.00,20.00,Thursday
148,28.94940175590691
596,-23.94473129270358
597,100.0
2,2, 5, 4, 0,22,20.00,30.00,Thursday
148,28.831731290450109
596,-24.23570558710911
597,100.0
2,2, 5, 4, 0,22,30.00,40.00,Thursday
148,28.797350556497599
596,-24.29850315807363
597,100.0
2,2, 5, 4, 0,22,40.00,50.00,Thursday
148,28.766097694477137
596,-24.423832842108177
597,100.0
2,2, 5, 4, 0,22,50.00,60.00,Thursday
148,28.778794744140936
596,-24.496335442662777
597,100.0
2,2, 5, 4, 0,23, 0.00,10.00,Thursday
148,28.73952586811287
596,-24.629051610041214
597,100.0
2,2, 5, 4, 0,23,10.00,20.00,Thursday
148,28.700673821817856
596,-24.797335312010419
597,100.0
2,2, 5, 4, 0,23,20.00,30.00,Thursday
148,28.628323740573987
596,-24.994327130547544
597,100.0
2,2, 5, 4, 0,23,30.00,40.00,Thursday
148,28.55507289821222
596,-25.217128291797186
597,100.0
2,2, 5, 4, 0,23,40.00,50.00,Thursday
148,28.465746059841196
596,-25.45147613165591
597,100.0
2,2, 5, 4, 0,23,50.00,60.00,Thursday
148,28.407019005823967
596,-25.58456588509085
597,100.0
2,2, 5, 4, 0,24, 0.00,10.00,Thursday
148,28.376300352674464
596,-25.676639401446484
597,100.0
2,2, 5, 4, 0,24,10.00,20.00,Thursday
148,28.272101515147175
596,-25.921570257085724
597,100.0
2,2, 5, 4, 0,24,20.00,30.00,Thursday
148,28.20504289458568
596,-26.121818022213956
597,100.0
2,2, 5, 4, 0,24,30.00,40.00,Thursday
148,28.180949387576484
596,-26.24467825876051
597,100.0
2,2, 5, 4, 0,24,40.00,50.00,Thursday
148,28.12605681670822
596,-26.461924322298477
597,100.0
2,2, 5, 4, 0,24,50.00,60.00,Thursday
148,28.008318000880594
596,-26.718552995621527
597,100.0
2,3, 5, 5, 0, 1, 0.00,10.00,Friday
148,27.899009438835905
596,-26.999753811521769
597,100.0
2,3, 5, 5, 0, 1,10.00,20.00,Friday
148,27.85740209524535
596,-27.122959407788878
597,100.0
2,3, 5, 5, 0, 1,20.00,30.00,Friday
148,27.829014040221787
596,-27.251586942928506
597,100.0
2,3, 5, 5, 0, 1,30.00,40.00,Friday
148,27.808305492991236
596,-27.33519227491595
597,100.0
2,3, 5, 5, 0, 1,40.00,50.00,Friday
148,27.702112519833248
596,-27.618011835663144
597,100.0
2,3, 5, 5, 0, 1,50.00,60.00,Friday
148,27.669477807236768
596,-27.73764587641755
597,100.0
2,3, 5, 5, 0, 2, 0.00,10.00,Friday
148,27.634279286416495
596,-27.881501932041233
597,100.0
2,3, 5, 5, 0, 2,10.00,20.00,Friday
148,27.58039902641498
596,-28.08143763206379
597,100.0
2,3, 5, 5, 0, 2,20.00,30.00,Friday
148,27.453566692658975
596,-28.397546273878786
597,100.0
2,3, 5, 5, 0, 2,30.00,40.00,Friday
148,27.072006536366076
596,-29.192443549822447
597,100.0