Program Version,EnergyPlus, Version 9.5.0-de239b2e5f, YMD=2021.11.28 17:17
1,5,Environment Title[],Latitude[deg],Longitude[deg],Time Zone[],Elevation[m]
2,8,Day of Simulation[],Month[],Day of Month[],DST Indicator[1=yes 0=no],Hour[],StartMinute[],EndMinute[],DayType
3,5,Cumulative Day of Simulation[],Month[],Day of Month[],DST Indicator[1=yes 0=no],DayType  ! When Daily Report Variables Requested
4,2,Cumulative Days of Simulation[],Month[]  ! When Monthly Report Variables Requested
5,1,Cumulative Days of Simulation[] ! When Run Period Report Variables Requested
6,1,Calendar Year of Simulation[] ! When Annual Report Variables Requested
7,1,Environment,Site Outdoor Air Drybulb Temperature [C] !TimeStep
8,1,ESTE,Surface Outside Face Incident Solar Radiation Rate per Area [W/m2] !TimeStep
9,1,NORTE,Surface Outside Face Incident Solar Radiation Rate per Area [W/m2] !TimeStep
10,1,OESTE,Surface Outside Face Incident Solar Radiation Rate per Area [W/m2] !TimeStep
11,1,SUR,Surface Outside Face Incident Solar Radiation Rate per Area [W/m2] !TimeStep
12,1,TECHO,Surface Outside Face Incident Solar Radiation Rate per Area [W/m2] !TimeStep
End of Data Dictionary
1,RUN PERIOD 1,  18.85, -99.14,  -6.00,1280.00
2,1, 1, 1, 0, 1, 0.00,10.00,Tuesday
7,18.4
8,0.0
9,0.0
10,0.0
11,0.0
12,0.0
2,1, 1, 1, 0, 1,10.00,20.00,Tuesday
7,18.1
8,0.0
9,0.0
10,0.0
11,0.0
12,0.0
2,1, 1, 1, 0, 1,20.00,30.00,Tuesday
7,18.3
8,0.0
9,0.0
10,0.0
11,0.0
12,0.0
2,1, 1, 1, 0, 1,30.00,40.00,Tuesday
7,17.9
8,0.0
9,0.0
10,0.0
11,0.0
12,0.0
2,1, 1, 1, 0, 1,40.00,50.00,Tuesday
7,17.7
8,0.0
9,0.0
10,0.0
11,0.0
12,0.0
2,1, 1, 1, 0, 1,50.00,60.00,Tuesday
7,17.5
8,0.0
9,0.0
10,0.0
11,0.0
12,0.0
2,1, 1, 1, 0, 2, 0.00,10.00,Tuesday
7,17.3
8,0.0
9,0.0
10,0.0
11,0.0
12,0.0
2,1, 1, 1, 0, 2,10.00,20.00,Tuesday
7,17.6
8,0.0
9,0.0
10,0.0
11,0.0
12,0.0
2,1, 1, 1, 0, 2,20.00,30.00,Tuesday
7,17.3
8,0.0
9,0.0
10,0.0
11,0.0
12,0.0
2,1, 1, 1, 0, 2,30.00,40.00,Tuesday
7,16.9
8,0.0
9,0.0
10,0.0
11,0.0
12,0.0
2,1, 1, 1, 0, 2,40.00,50.00,Tuesday
7,17.3
8,0.0
9,0.0
10,0.0
11,0.0
12,0.0
2,1, 1, 1, 0, 2,50.00,60.00,Tuesday
7,17.3
8,0.0
9,0.0
10,0.0
11,0.0
12,0.0
2,1, 1, 1, 0, 3, 0.00,10.00,Tuesday
7,17.0
8,0.0
9,0.0
10,0.0
11,0.0
12,0.0
2,1, 1, 1, 0, 3,10.00,20.00,Tuesday
7,16.4
8,0.0
9,0.0
10,0.0
11,0.0
12,0.0
2,1, 1, 1, 0, 3,20.00,30.00,Tuesday
7,16.9
8,0.0
9,0.0
10,0.0
11,0.0
12,0.0
2,1, 1, 1, 0, 3,30.00,40.00,Tuesday
7,15.9
8,0.0
9,0.0
10,0.0
11,0.0
12,0.0
2,1, 1, 1, 0, 3,40.00,50.00,Tuesday
7,15.8
8,0.0
9,0.0
10,0.0
11,0.0
12,0.0
2,1, 1, 1, 0, 3,50.00,60.00,Tuesday
7,16.3
8,0.0
9,0.0
10,0.0
11,0.0
12,0.0
2,1, 1, 1, 0, 4, 0.00,10.00,Tuesday
7,17.0
8,0.0
9,0.0
10,0.0
11,0.0
12,0.0
2,1, 1, 1, 0, 4,10.00,20.00,Tuesday
7,17.2
8,0.0
9,0.0
10,0.0
11,0.0
12,0.0
2,1, 1, 1, 0, 4,20.00,30.00,Tuesday
7,16.5
8,0.0
9,0.0
10,0.0
11,0.0
12,0.0
2,1, 1, 1, 0, 4,30.00,40.00,Tuesday
7,16.1
8,0.0
9,0.0
10,0.0
11,0.0
12,0.0
2,1, 1, 1, 0, 4,40.00,50.00,Tuesday
7,15.6
8,0.0
9,0.0
10,0.0
11,0.0
12,0.0
2,1, 1, 1, 0, 4,50.00,60.00,Tuesday
7,15.9
8,0.0
9,0.0
10,0.0
11,0.0
12,0.0
2,1, 1, 1, 0, 5, 0.00,10.00,Tuesday
7,16.3
8,0.0
9,0.0
10,0.0
11,0.0
12,0.0
2,1, 1, 1, 0, 5,10.00,20.00,Tuesday
7,16.4
8,0.0
9,0.0
10,0.0
11,0.0
12,0.0
2,1, 1, 1, 0, 5,20.00,30.00,Tuesday
7,16.2
8,0.0
9,0.0
10,0.0
11,0.0
12,0.0
2,1, 1, 1, 0, 5,30.00,40.00,Tuesday
7,15.5
8,0.0
9,0.0
10,0.0
11,0.0
12,0.0
2,1, 1, 1, 0, 5,40.00,50.00,Tuesday
7,15.5
8,0.0
9,0.0
10,0.0
11,0.0
12,0.0
2,1, 1, 1, 0, 5,50.00,60.00,Tuesday
7,16.7
8,0.0
9,0.0
10,0.0
11,0.0
12,0.0
2,1, 1, 1, 0, 6, 0.00,10.00,Tuesday
7,16.0
8,0.0
9,0.0
10,0.0
11,0.0
12,0.0
2,1, 1, 1, 0, 6,10.00,20.00,Tuesday
7,15.4
8,0.0
9,0.0
10,0.0
11,0.0
12,0.0
2,1, 1, 1, 0, 6,20.00,30.00,Tuesday
7,15.2
8,0.0
9,0.0
10,0.0
11,0.0
12,0.0
2,1, 1, 1, 0, 6,30.00,40.00,Tuesday
7,15.5
8,0.0
9,0.0
10,0.0
11,0.0
12,0.0
2,1, 1, 1, 0, 6,40.00,50.00,Tuesday
7,14.8
8,0.0
9,0.0
10,0.0
11,0.0
12,0.0
2,1, 1, 1, 0, 6,50.00,60.00,Tuesday
7,14.9
8,0.0
9,0.0
10,0.0
11,0.0
12,0.0
2,1, 1, 1, 0, 7, 0.00,10.00,Tuesday
7,14.3
8,0.0
9,0.0
10,0.0
11,0.0
12,0.0
2,1, 1, 1, 0, 7,10.00,20.00,Tuesday
7,15.0
8,0.0
9,0.0
10,0.0
11,0.0
12,0.0
2,1, 1, 1, 0, 7,20.00,30.00,Tuesday
7,14.6
8,0.0
9,0.0
10,0.0
11,0.0
12,0.0
2,1, 1, 1, 0, 7,30.00,40.00,Tuesday
7,14.6
8,0.0
9,0.0
10,0.0
11,0.0
12,0.0
2,1, 1, 1, 0, 7,40.00,50.00,Tuesday
7,14.4
8,0.0
9,0.0
10,0.0
11,0.0
12,0.0
2,1, 1, 1, 0, 7,50.00,60.00,Tuesday
7,15.3
8,0.0
9,0.0
10,0.0
11,0.0
12,0.0
2,1, 1, 1, 0, 8, 0.00,10.00,Tuesday
7,14.9
8,0.0
9,0.0
10,0.0
11,0.0
12,0.0
2,1, 1, 1, 0, 8,10.00,20.00,Tuesday
7,15.1
8,0.0
9,0.0
10,0.0
11,0.0
12,0.0
2,1, 1, 1, 0, 8,20.00,30.00,Tuesday
7,14.8
8,0.0
9,0.0
10,0.0
11,0.0
12,0.0
2,1, 1, 1, 0, 8,30.00,40.00,Tuesday
7,14.8
8,0.0
9,0.0
10,0.0
11,0.0
12,0.0
2,1, 1, 1, 0, 8,40.00,50.00,Tuesday
7,15.1
8,0.0
9,0.0
10,0.0
11,0.0
12,0.0
2,1, 1, 1, 0, 8,50.00,60.00,Tuesday
7,15.6
8,0.0
9,0.0
10,0.0
11,0.0
12,0.0
2,1, 1, 1, 0, 9, 0.00,10.00,Tuesday
7,16.2
8,0.0
9,0.0
10,0.0
11,0.0
12,0.0
2,1, 1, 1, 0, 9,10.00,20.00,Tuesday
7,17.4
8,0.0
9,0.0
10,0.0
11,0.0
12,0.0
2,1, 1, 1, 0, 9,20.00,30.00,Tuesday
7,19.0
8,0.0
9,0.0
10,0.0
11,0.0
12,0.0
2,1, 1, 1, 0, 9,30.00,40.00,Tuesday
7,18.0
8,0.0
9,0.0
10,0.0
11,0.0
12,0.0
2,1, 1, 1, 0, 9,40.00,50.00,Tuesday
7,18.3
8,0.0
9,0.0
10,0.0
11,0.0
12,0.0
2,1, 1, 1, 0, 9,50.00,60.00,Tuesday
7,18.9
8,0.0
9,0.0
10,0.0
11,0.0
12,0.0
2,1, 1, 1, 0,10, 0.00,10.00,Tuesday
7,19.9
8,0.0
9,0.0
10,0.0
11,0.0
12,0.0
2,1, 1, 1, 0,10,10.00,20.00,Tuesday
7,20.1
8,0.0
9,0.0
10,0.0
11,0.0
12,0.0
2,1, 1, 1, 0,10,20.00,30.00,Tuesday
7,20.0
8,0.0
9,0.0
10,0.0
11,0.0
12,0.0
2,1, 1, 1, 0,10,30.00,40.00,Tuesday
7,20.2
8,0.0
9,0.0
10,0.0
11,0.0
12,0.0
2,1, 1, 1, 0,10,40.00,50.00,Tuesday
7,20.0
8,0.0
9,0.0
10,0.0
11,0.0
12,0.0
2,1, 1, 1, 0,10,50.00,60.00,Tuesday
7,19.8
8,0.0
9,0.0
10,0.0
11,0.0
12,0.0
2,1, 1, 1, 0,11, 0.00,10.00,Tuesday
7,19.8
8,0.0
9,0.0
10,0.0
11,0.0
12,0.0
2,1, 1, 1, 0,11,10.00,20.00,Tuesday
7,20.9
8,0.0
9,0.0
10,0.0
11,0.0
12,0.0
2,1, 1, 1, 0,11,20.00,30.00,Tuesday
7,21.0
8,0.0
9,0.0
10,0.0
11,0.0
12,0.0
2,1, 1, 1, 0,11,30.00,40.00,Tuesday
7,21.2
8,0.0
9,0.0
10,0.0
11,0.0
12,0.0
2,1, 1, 1, 0,11,40.00,50.00,Tuesday
7,21.7
8,0.0
9,0.0
10,0.0
11,0.0
12,0.0
2,1, 1, 1, 0,11,50.00,60.00,Tuesday
7,21.6
8,0.0
9,0.0
10,0.0
11,0.0
12,0.0
2,1, 1, 1, 0,12, 0.00,10.00,Tuesday
7,22.2
8,0.0
9,0.0
10,0.0
11,0.0
12,0.0
2,1, 1, 1, 0,12,10.00,20.00,Tuesday
7,22.7
8,0.0
9,0.0
10,0.0
11,0.0
12,0.0
2,1, 1, 1, 0,12,20.00,30.00,Tuesday
7,23.0
8,0.0
9,0.0
10,0.0
11,0.0
12,0.0
2,1, 1, 1, 0,12,30.00,40.00,Tuesday
7,23.0
8,0.0
9,0.0
10,0.0
11,0.0
12,0.0
2,1, 1, 1, 0,12,40.00,50.00,Tuesday
7,23.2
8,0.0
9,0.0
10,0.0
11,0.0
12,0.0
2,1, 1, 1, 0,12,50.00,60.00,Tuesday
7,23.6
8,0.0
9,0.0
10,0.0
11,0.0
12,0.0
2,1, 1, 1, 0,13, 0.00,10.00,Tuesday
7,23.9
8,0.0
9,0.0
10,0.0
11,0.0
12,0.0
2,1, 1, 1, 0,13,10.00,20.00,Tuesday
7,23.8
8,0.0
9,0.0
10,0.0
11,0.0
12,0.0
2,1, 1, 1, 0,13,20.00,30.00,Tuesday
7,24.7
8,0.0
9,0.0
10,0.0
11,0.0
12,0.0
2,1, 1, 1, 0,13,30.00,40.00,Tuesday
7,24.2
8,0.0
9,0.0
10,0.0
11,0.0
12,0.0
2,1, 1, 1, 0,13,40.00,50.00,Tuesday
7,25.0
8,0.0
9,0.0
10,0.0
11,0.0
12,0.0
2,1, 1, 1, 0,13,50.00,60.00,Tuesday
7,24.7
8,0.0
9,0.0
10,0.0
11,0.0
12,0.0
2,1, 1, 1, 0,14, 0.00,10.00,Tuesday
7,25.1
8,0.0
9,0.0
10,0.0
11,0.0
12,0.0
2,1, 1, 1, 0,14,10.00,20.00,Tuesday
7,25.6
8,0.0
9,0.0
10,0.0
11,0.0
12,0.0
2,1, 1, 1, 0,14,20.00,30.00,Tuesday
7,25.4
8,0.0
9,0.0
10,0.0
11,0.0
12,0.0
2,1, 1, 1, 0,14,30.00,40.00,Tuesday
7,25.7
8,0.0
9,0.0
10,0.0
11,0.0
12,0.0
2,1, 1, 1, 0,14,40.00,50.00,Tuesday
7,26.0
8,0.0
9,0.0
10,0.0
11,0.0
12,0.0
2,1, 1, 1, 0,14,50.00,60.00,Tuesday
7,26.2
8,0.0
9,0.0
10,0.0
11,0.0
12,0.0
2,1, 1, 1, 0,15, 0.00,10.00,Tuesday
7,26.8
8,0.0
9,0.0
10,0.0
11,0.0
12,0.0
2,1, 1, 1, 0,15,10.00,20.00,Tuesday
7,27.0
8,0.0
9,0.0
10,0.0
11,0.0
12,0.0
2,1, 1, 1, 0,15,20.00,30.00,Tuesday
7,27.0
8,0.0
9,0.0
10,0.0
11,0.0
12,0.0
2,1, 1, 1, 0,15,30.00,40.00,Tuesday
7,27.3
8,0.0
9,0.0
10,0.0
11,0.0
12,0.0
2,1, 1, 1, 0,15,40.00,50.00,Tuesday
7,27.7
8,0.0
9,0.0
10,0.0
11,0.0
12,0.0
2,1, 1, 1, 0,15,50.00,60.00,Tuesday
7,26.4
8,0.0
9,0.0
10,0.0
11,0.0
12,0.0
2,1, 1, 1, 0,16, 0.00,10.00,Tuesday
7,26.8
8,0.0
9,0.0
10,0.0
11,0.0
12,0.0
2,1, 1, 1, 0,16,10.00,20.00,Tuesday
7,26.8
8,0.0
9,0.0
10,0.0
11,0.0
12,0.0
2,1, 1, 1, 0,16,20.00,30.00,Tuesday
7,27.0
8,0.0
9,0.0
10,0.0
11,0.0
12,0.0
2,1, 1, 1, 0,16,30.00,40.00,Tuesday
7,27.3
8,0.0
9,0.0
10,0.0
11,0.0
12,0.0
2,1, 1, 1, 0,16,40.00,50.00,Tuesday
7,27.2
8,0.0
9,0.0
10,0.0
11,0.0
12,0.0
2,1, 1, 1, 0,16,50.00,60.00,Tuesday
7,27.5
8,0.0
9,0.0
10,0.0
11,0.0
12,0.0
2,1, 1, 1, 0,17, 0.00,10.00,Tuesday
7,28.5
8,0.0
9,0.0
10,0.0
11,0.0
12,0.0
2,1, 1, 1, 0,17,10.00,20.00,Tuesday
7,27.6
8,0.0
9,0.0
10,0.0
11,0.0
12,0.0
2,1, 1, 1, 0,17,20.00,30.00,Tuesday
7,27.6
8,0.0
9,0.0
10,0.0
11,0.0
12,0.0
2,1, 1, 1, 0,17,30.00,40.00,Tuesday
7,28.0
8,0.0
9,0.0
10,0.0
11,0.0
12,0.0
2,1, 1, 1, 0,17,40.00,50.00,Tuesday
7,27.3
8,0.0
9,0.0
10,0.0
11,0.0
12,0.0
2,1, 1, 1, 0,17,50.00,60.00,Tuesday
7,28.0
8,0.0
9,0.0
10,0.0
11,0.0
12,0.0
2,1, 1, 1, 0,18, 0.00,10.00,Tuesday
7,28.0
8,0.0
9,0.0
10,0.0
11,0.0
12,0.0
2,1, 1, 1, 0,18,10.00,20.00,Tuesday
7,27.1
8,0.0
9,0.0
10,0.0
11,0.0
12,0.0
2,1, 1, 1, 0,18,20.00,30.00,Tuesday
7,27.1
8,0.0
9,0.0
10,0.0
11,0.0
12,0.0
2,1, 1, 1, 0,18,30.00,40.00,Tuesday
7,28.0
8,0.0
9,0.0
10,0.0
11,0.0
12,0.0
2,1, 1, 1, 0,18,40.00,50.00,Tuesday
7,26.3
8,0.0
9,0.0
10,0.0
11,0.0
12,0.0
2,1, 1, 1, 0,18,50.00,60.00,Tuesday
7,25.7
8,0.0
9,0.0
10,0.0
11,0.0
12,0.0
2,1, 1, 1, 0,19, 0.00,10.00,Tuesday
7,25.7
8,0.0
9,0.0
10,0.0
11,0.0
12,0.0
2,1, 1, 1, 0,19,10.00,20.00,Tuesday
7,25.0
8,0.0
9,0.0
10,0.0
11,0.0
12,0.0
2,1, 1, 1, 0,19,20.00,30.00,Tuesday
7,24.6
8,0.0
9,0.0
10,0.0
11,0.0
12,0.0
2,1, 1, 1, 0,19,30.00,40.00,Tuesday
7,23.9
8,0.0
9,0.0
10,0.0
11,0.0
12,0.0
2,1, 1, 1, 0,19,40.00,50.00,Tuesday
7,23.5
8,0.0
9,0.0
10,0.0
11,0.0
12,0.0
2,1, 1, 1, 0,19,50.00,60.00,Tuesday
7,21.7
8,0.0
9,0.0
10,0.0
11,0.0
12,0.0
2,1, 1, 1, 0,20, 0.00,10.00,Tuesday
7,20.9
8,0.0
9,0.0
10,0.0
11,0.0
12,0.0
2,1, 1, 1, 0,20,10.00,20.00,Tuesday
7,20.6
8,0.0
9,0.0
10,0.0
11,0.0
12,0.0
2,1, 1, 1, 0,20,20.00,30.00,Tuesday
7,20.2
8,0.0
9,0.0
10,0.0
11,0.0
12,0.0
2,1, 1, 1, 0,20,30.00,40.00,Tuesday
7,20.1
8,0.0
9,0.0
10,0.0
11,0.0
12,0.0
2,1, 1, 1, 0,20,40.00,50.00,Tuesday
7,20.0
8,0.0
9,0.0
10,0.0
11,0.0
12,0.0
2,1, 1, 1, 0,20,50.00,60.00,Tuesday
7,19.8
8,0.0
9,0.0
10,0.0
11,0.0
12,0.0
2,1, 1, 1, 0,21, 0.00,10.00,Tuesday
7,20.0
8,0.0
9,0.0
10,0.0
11,0.0
12,0.0
2,1, 1, 1, 0,21,10.00,20.00,Tuesday
7,20.0
8,0.0
9,0.0
10,0.0
11,0.0
12,0.0
2,1, 1, 1, 0,21,20.00,30.00,Tuesday
7,19.4
8,0.0
9,0.0
10,0.0
11,0.0
12,0.0
2,1, 1, 1, 0,21,30.00,40.00,Tuesday
7,19.0
8,0.0
9,0.0
10,0.0
11,0.0
12,0.0
2,1, 1, 1, 0,21,40.00,50.00,Tuesday
7,19.5
8,0.0
9,0.0
10,0.0
11,0.0
12,0.0
2,1, 1, 1, 0,21,50.00,60.00,Tuesday
7,20.0
8,0.0
9,0.0
10,0.0
11,0.0
12,0.0
2,1, 1, 1, 0,22, 0.00,10.00,Tuesday
7,19.8
8,0.0
9,0.0
10,0.0
11,0.0
12,0.0
2,1, 1, 1, 0,22,10.00,20.00,Tuesday
7,19.8
8,0.0
9,0.0
10,0.0
11,0.0
12,0.0
2,1, 1, 1, 0,22,20.00,30.00,Tuesday
7,19.7
8,0.0
9,0.0
10,0.0
11,0.0
12,0.0
2,1, 1, 1, 0,22,30.00,40.00,Tuesday
7,19.4
8,0.0
9,0.0
10,0.0
11,0.0
12,0.0
2,1, 1, 1, 0,22,40.00,50.00,Tuesday
7,19.8
8,0.0
9,0.0
10,0.0
11,0.0
12,0.0
2,1, 1, 1, 0,22,50.00,60.00,Tuesday
7,20.1
8,0.0
9,0.0
10,0.0
11,0.0
12,0.0
2,1, 1, 1, 0,23, 0.00,10.00,Tuesday
7,19.9
8,0.0
9,0.0
10,0.0
11,0.0
12,0.0
2,1, 1, 1, 0,23,10.00,20.00,Tuesday
7,20.3
8,0.0
9,0.0
10,0.0
11,0.0
12,0.0
2,1, 1, 1, 0,23,20.00,30.00,Tuesday
7,19.8
8,0.0
9,0.0
10,0.0
11,0.0
12,0.0
2,1, 1, 1, 0,23,30.00,40.00,Tuesday
7,19.0
8,0.0
9,0.0
10,0.0
11,0.0
12,0.0
2,1, 1, 1, 0,23,40.00,50.00,Tuesday
7,19.8
8,0.0
9,0.0
10,0.0
11,0.0
12,0.0
2,1, 1, 1, 0,23,50.00,60.00,Tuesday
7,19.7
8,0.0
9,0.0
10,0.0
11,0.0
12,0.0
2,1, 1, 1, 0,24, 0.00,10.00,Tuesday
7,19.7
8,0.0
9,0.0
10,0.0
11,0.0
12,0.0
2,1, 1, 1, 0,24,10.00,20.00,Tuesday
7,19.7
8,0.0
9,0.0
10,0.0
11,0.0
12,0.0
2,1, 1, 1, 0,24,20.00,30.00,Tuesday
7,19.8
8,0.0
9,0.0
10,0.0
11,0.0
12,0.0
2,1, 1, 1, 0,24,30.00,40.00,Tuesday
7,19.8
8,0.0
9,0.0
10,0.0
11,0.0
12,0.0
2,1, 1, 1, 0,24,40.00,50.00,Tuesday
7,18.8
8,0.0
9,0.0
10,0.0
11,0.0
12,0.0
2,1, 1, 1, 0,24,50.00,60.00,Tuesday
7,18.8
8,0.0
9,0.0
10,0.0
11,0.0
12,0.0
2,2, 1, 2, 0, 1, 0.00,10.00,Wednesday
7,18.5
8,0.0
9,0.0
10,0.0
11,0.0
12,0.0
2,2, 1, 2, 0, 1,10.00,20.00,Wednesday
7,17.6
8,0.0
9,0.0
10,0.0
11,0.0
12,0.0
2,2, 1, 2, 0, 1,20.00,30.00,Wednesday
7,18.2
8,0.0
9,0.0
10,0.0
11,0.0
12,0.0
2,2, 1, 2, 0, 1,30.00,40.00,Wednesday
7,17.5
8,0.0
9,0.0
10,0.0
11,0.0
12,0.0
2,2, 1, 2, 0, 1,40.00,50.00,Wednesday
7,17.6
8,0.0
9,0.0
10,0.0
11,0.0
12,0.0
2,2, 1, 2, 0, 1,50.00,60.00,Wednesday
7,17.8
8,0.0
9,0.0
10,0.0
11,0.0
12,0.0
2,2, 1, 2, 0, 2, 0.00,10.00,Wednesday
7,17.3
8,0.0
9,0.0
10,0.0
11,0.0
12,0.0
2,2, 1, 2, 0, 2,10.00,20.00,Wednesday
7,16.5
8,0.0
9,0.0
10,0.0
11,0.0
12,0.0
2,2, 1, 2, 0, 2,20.00,30.00,Wednesday
7,16.9
8,0.0
9,0.0
10,0.0
11,0.0
12,0.0
2,2, 1, 2, 0, 2,30.00,40.00,Wednesday
7,16.7
8,0.0
9,0.0
10,0.0
11,0.0
12,0.0
2,2, 1, 2, 0, 2,40.00,50.00,Wednesday
7,16.6
8,0.0
9,0.0
10,0.0
11,0.0
12,0.0
2,2, 1, 2, 0, 2,50.00,60.00,Wednesday
7,16.8
8,0.0
9,0.0
10,0.0
11,0.0
12,0.0
2,2, 1, 2, 0, 3, 0.00,10.00,Wednesday
7,15.7
8,0.0
9,0.0
10,0.0
11,0.0
12,0.0
2,2, 1, 2, 0, 3,10.00,20.00,Wednesday
7,16.1
8,0.0
9,0.0
10,0.0
11,0.0
12,0.0
2,2, 1, 2, 0, 3,20.00,30.00,Wednesday
7,15.8
8,0.0
9,0.0
10,0.0
11,0.0
12,0.0
2,2, 1, 2, 0, 3,30.00,40.00,Wednesday
7,16.0
8,0.0
9,0.0
10,0.0
11,0.0
12,0.0
2,2, 1, 2, 0, 3,40.00,50.00,Wednesday
7,16.2
8,0.0
9,0.0
10,0.0
11,0.0
12,0.0
2,2, 1, 2, 0, 3,50.00,60.00,Wednesday
7,16.4
8,0.0
9,0.0
10,0.0
11,0.0
12,0.0
2,2, 1, 2, 0, 4, 0.00,10.00,Wednesday
7,16.5
8,0.0
9,0.0
10,0.0
11,0.0
12,0.0
2,2, 1, 2, 0, 4,10.00,20.00,Wednesday
7,16.9
8,0.0
9,0.0
10,0.0
11,0.0
12,0.0
2,2, 1, 2, 0, 4,20.00,30.00,Wednesday
7,16.5
8,0.0
9,0.0
10,0.0
11,0.0
12,0.0
2,2, 1, 2, 0, 4,30.00,40.00,Wednesday
7,16.4
8,0.0
9,0.0
10,0.0
11,0.0
12,0.0
2,2, 1, 2, 0, 4,40.00,50.00,Wednesday
7,16.4
8,0.0
9,0.0
10,0.0
11,0.0
12,0.0
2,2, 1, 2, 0, 4,50.00,60.00,Wednesday
7,16.5
8,0.0
9,0.0
10,0.0
11,0.0
12,0.0
2,2, 1, 2, 0, 5, 0.00,10.00,Wednesday
7,16.3
8,0.0
9,0.0
10,0.0
11,0.0
12,0.0
2,2, 1, 2, 0, 5,10.00,20.00,Wednesday
7,16.2
8,0.0
9,0.0
10,0.0
11,0.0
12,0.0
2,2, 1, 2, 0, 5,20.00,30.00,Wednesday
7,16.3
8,0.0
9,0.0
10,0.0
11,0.0
12,0.0
2,2, 1, 2, 0, 5,30.00,40.00,Wednesday
7,16.0
8,0.0
9,0.0
10,0.0
11,0.0
12,0.0
2,2, 1, 2, 0, 5,40.00,50.00,Wednesday
7,15.9
8,0.0
9,0.0
10,0.0
11,0.0
12,0.0
2,2, 1, 2, 0, 5,50.00,60.00,Wednesday
7,15.8
8,0.0
9,0.0
10,0.0
11,0.0
12,0.0
2,2, 1, 2, 0, 6, 0.00,10.00,Wednesday
7,15.7
8,0.0
9,0.0
10,0.0
11,0.0
12,0.0
2,2, 1, 2, 0, 6,10.00,20.00,Wednesday
7,15.5
8,0.0
9,0.0
10,0.0
11,0.0
12,0.0
2,2, 1, 2, 0, 6,20.00,30.00,Wednesday
7,15.2
8,0.0
9,0.0
10,0.0
11,0.0
12,0.0
2,2, 1, 2, 0, 6,30.00,40.00,Wednesday
7,15.2
8,0.0
9,0.0
10,0.0
11,0.0
12,0.0
2,2, 1, 2, 0, 6,40.00,50.00,Wednesday
7,15.6
8,0.0
9,0.0
10,0.0
11,0.0
12,0.0
2,2, 1, 2, 0, 6,50.00,60.00,Wednesday
7,15.6
8,0.0
9,0.0
10,0.0
11,0.0
12,0.0
2,2, 1, 2, 0, 7, 0.00,10.00,Wednesday
7,15.2
8,0.0
9,0.0
10,0.0
11,0.0
12,0.0
2,2, 1, 2, 0, 7,10.00,20.00,Wednesday
7,15.2
8,0.0
9,0.0
10,0.0
11,0.0
12,0.0
2,2, 1, 2, 0, 7,20.00,30.00,Wednesday
7,15.4
8,0.0
9,0.0
10,0.0
11,0.0
12,0.0
2,2, 1, 2, 0, 7,30.00,40.00,Wednesday
7,15.6
8,0.0
9,0.0
10,0.0
11,0.0
12,0.0
2,2, 1, 2, 0, 7,40.00,50.00,Wednesday
7,15.8
8,0.0
9,0.0
10,0.0
11,0.0
12,0.0
2,2, 1, 2, 0, 7,50.00,60.00,Wednesday
7,15.7
8,0.0
9,0.0
10,0.0
11,0.0
12,0.0
2,2, 1, 2, 0, 8, 0.00,10.00,Wednesday
7,15.4
8,0.0
9,0.0
10,0.0
11,0.0
12,0.0
2,2, 1, 2, 0, 8,10.00,20.00,Wednesday
7,15.0
8,0.0
9,0.0
10,0.0
11,0.0
12,0.0
2,2, 1, 2, 0, 8,20.00,30.00,Wednesday
7,14.9
8,0.0
9,0.0
10,0.0
11,0.0
12,0.0
2,2, 1, 2, 0, 8,30.00,40.00,Wednesday
7,14.7
8,0.0
9,0.0
10,0.0
11,0.0
12,0.0
2,2, 1, 2, 0, 8,40.00,50.00,Wednesday
7,14.9
8,0.0
9,0.0
10,0.0
11,0.0
12,0.0
2,2, 1, 2, 0, 8,50.00,60.00,Wednesday
7,15.7
8,0.0
9,0.0
10,0.0
11,0.0
12,0.0
2,2, 1, 2, 0, 9, 0.00,10.00,Wednesday
7,16.3
8,0.0
9,0.0
10,0.0
11,0.0
12,0.0
2,2, 1, 2, 0, 9,10.00,20.00,Wednesday
7,17.0
8,0.0
9,0.0
10,0.0
11,0.0
12,0.0
2,2, 1, 2, 0, 9,20.00,30.00,Wednesday
7,16.5
8,0.0
9,0.0
10,0.0
11,0.0
12,0.0
2,2, 1, 2, 0, 9,30.00,40.00,Wednesday
7,17.1
8,0.0
9,0.0
10,0.0
11,0.0
12,0.0
2,2, 1, 2, 0, 9,40.00,50.00,Wednesday
7,17.7
8,0.0
9,0.0
10,0.0
11,0.0
12,0.0
2,2, 1, 2, 0, 9,50.00,60.00,Wednesday
7,18.6
8,0.0
9,0.0
10,0.0
11,0.0
12,0.0
2,2, 1, 2, 0,10, 0.00,10.00,Wednesday
7,18.8
8,0.0
9,0.0
10,0.0
11,0.0
12,0.0
2,2, 1, 2, 0,10,10.00,20.00,Wednesday
7,18.9
8,0.0
9,0.0
10,0.0
11,0.0
12,0.0
2,2, 1, 2, 0,10,20.00,30.00,Wednesday
7,19.5
8,0.0
9,0.0
10,0.0
11,0.0
12,0.0
2,2, 1, 2, 0,10,30.00,40.00,Wednesday
7,19.8
8,0.0
9,0.0
10,0.0
11,0.0
12,0.0
2,2, 1, 2, 0,10,40.00,50.00,Wednesday
7,19.3
8,0.0
9,0.0
10,0.0
11,0.0
12,0.0
2,2, 1, 2, 0,10,50.00,60.00,Wednesday
7,18.8
8,0.0
9,0.0
10,0.0
11,0.0
12,0.0
2,2, 1, 2, 0,11, 0.00,10.00,Wednesday
7,18.5
8,0.0
9,0.0
10,0.0
11,0.0
12,0.0
2,2, 1, 2, 0,11,10.00,20.00,Wednesday
7,19.2
8,0.0
9,0.0
10,0.0
11,0.0
12,0.0
2,2, 1, 2, 0,11,20.00,30.00,Wednesday
7,19.9
8,0.0
9,0.0
10,0.0
11,0.0
12,0.0
2,2, 1, 2, 0,11,30.00,40.00,Wednesday
7,19.5
8,0.0
9,0.0
10,0.0
11,0.0
12,0.0
2,2, 1, 2, 0,11,40.00,50.00,Wednesday
7,19.6
8,0.0
9,0.0
10,0.0
11,0.0
12,0.0
2,2, 1, 2, 0,11,50.00,60.00,Wednesday
7,19.7
8,0.0
9,0.0
10,0.0
11,0.0
12,0.0
2,2, 1, 2, 0,12, 0.00,10.00,Wednesday
7,19.8
8,0.0
9,0.0
10,0.0
11,0.0
12,0.0
2,2, 1, 2, 0,12,10.00,20.00,Wednesday
7,21.0
8,0.0
9,0.0
10,0.0
11,0.0
12,0.0
2,2, 1, 2, 0,12,20.00,30.00,Wednesday
7,21.3
8,0.0
9,0.0
10,0.0
11,0.0
12,0.0
2,2, 1, 2, 0,12,30.00,40.00,Wednesday
7,21.6
8,0.0
9,0.0
10,0.0
11,0.0
12,0.0
2,2, 1, 2, 0,12,40.00,50.00,Wednesday
7,21.8
8,0.0
9,0.0
10,0.0
11,0.0
12,0.0
2,2, 1, 2, 0,12,50.00,60.00,Wednesday
7,22.4
8,0.0
9,0.0
10,0.0
11,0.0
12,0.0
2,2, 1, 2, 0,13, 0.00,10.00,Wednesday
7,22.2
8,0.0
9,0.0
10,0.0
11,0.0
12,0.0
2,2, 1, 2, 0,13,10.00,20.00,Wednesday
7,22.8
8,0.0
9,0.0
10,0.0
11,0.0
12,0.0
2,2, 1, 2, 0,13,20.00,30.00,Wednesday
7,23.3
8,0.0
9,0.0
10,0.0
11,0.0
12,0.0
2,2, 1, 2, 0,13,30.00,40.00,Wednesday
7,22.7
8,0.0
9,0.0
10,0.0
11,0.0
12,0.0
2,2, 1, 2, 0,13,40.00,50.00,Wednesday
7,23.6
8,0.0
9,0.0
10,0.0
11,0.0
12,0.0
2,2, 1, 2, 0,13,50.00,60.00,Wednesday
7,23.9
8,0.0
9,0.0
10,0.0
11,0.0
12,0.0
2,2, 1, 2, 0,14, 0.00,10.00,Wednesday
7,23.8
8,0.0
9,0.0
10,0.0
11,0.0
12,0.0
2,2, 1, 2, 0,14,10.00,20.00,Wednesday
7,24.0
8,0.0
9,0.0
10,0.0
11,0.0
12,0.0
2,2, 1, 2, 0,14,20.00,30.00,Wednesday
7,24.8
8,0.0
9,0.0
10,0.0
11,0.0
12,0.0
2,2, 1, 2, 0,14,30.00,40.00,Wednesday
7,24.5
8,0.0
9,0.0
10,0.0
11,0.0
12,0.0
2,2, 1, 2, 0,14,40.00,50.00,Wednesday
7,26.0
8,0.0
9,0.0
10,0.0
11,0.0
12,0.0
2,2, 1, 2, 0,14,50.00,60.00,Wednesday
7,25.9
8,0.0
9,0.0
10,0.0
11,0.0
12,0.0
2,2, 1, 2, 0,15, 0.00,10.00,Wednesday
7,25.1
8,0.0
9,0.0
10,0.0
11,0.0
12,0.0
2,2, 1, 2, 0,15,10.00,20.00,Wednesday
7,26.2
8,0.0
9,0.0
10,0.0
11,0.0
12,0.0
2,2, 1, 2, 0,15,20.00,30.00,Wednesday
7,26.0
8,0.0
9,0.0
10,0.0
11,0.0
12,0.0
2,2, 1, 2, 0,15,30.00,40.00,Wednesday
7,26.3
8,0.0
9,0.0
10,0.0
11,0.0
12,0.0
2,2, 1, 2, 0,15,40.00,50.00,Wednesday
7,26.6
8,0.0
9,0.0
10,0.0
11,0.0
12,0.0
2,2, 1, 2, 0,15,50.00,60.00,Wednesday
7,26.7
8,0.0
9,0.0
10,0.0
11,0.0
12,0.0
2,2, 1, 2, 0,16, 0.00,10.00,Wednesday
7,27.2
8,0.0
9,0.0
10,0.0
11,0.0
12,0.0
2,2, 1, 2, 0,16,10.00,20.00,Wednesday
7,26.8
8,0.0
9,0.0
10,0.0
11,0.0
12,0.0
2,2, 1, 2, 0,16,20.00,30.00,Wednesday
7,26.5
8,0.0
9,0.0
10,0.0
11,0.0
12,0.0
2,2, 1, 2, 0,16,30.00,40.00,Wednesday
7,27.3
8,0.0
9,0.0
10,0.0
11,0.0
12,0.0
2,2, 1, 2, 0,16,40.00,50.00,Wednesday
7,27.1
8,0.0
9,0.0
10,0.0
11,0.0
12,0.0
2,2, 1, 2, 0,16,50.00,60.00,Wednesday
7,27.2
8,0.0
9,0.0
10,0.0
11,0.0
12,0.0
2,2, 1, 2, 0,17, 0.00,10.00,Wednesday
7,27.4
8,0.0
9,0.0
10,0.0
11,0.0
12,0.0
2,2, 1, 2, 0,17,10.00,20.00,Wednesday
7,27.5
8,0.0
9,0.0
10,0.0
11,0.0
12,0.0
2,2, 1, 2, 0,17,20.00,30.00,Wednesday
7,27.5
8,0.0
9,0.0
10,0.0
11,0.0
12,0.0
2,2, 1, 2, 0,17,30.00,40.00,Wednesday
7,27.1
8,0.0
9,0.0
10,0.0
11,0.0
12,0.0
2,2, 1, 2, 0,17,40.00,50.00,Wednesday
7,27.0
8,0.0
9,0.0
10,0.0
11,0.0
12,0.0
2,2, 1, 2, 0,17,50.00,60.00,Wednesday
7,28.3
8,0.0
9,0.0
10,0.0
11,0.0
12,0.0
2,2, 1, 2, 0,18, 0.00,10.00,Wednesday
7,28.2
8,0.0
9,0.0
10,0.0
11,0.0
12,0.0
2,2, 1, 2, 0,18,10.00,20.00,Wednesday
7,27.7
8,0.0
9,0.0
10,0.0
11,0.0
12,0.0
2,2, 1, 2, 0,18,20.00,30.00,Wednesday
7,27.7
8,0.0
9,0.0
10,0.0
11,0.0
12,0.0
2,2, 1, 2, 0,18,30.00,40.00,Wednesday
7,27.6
8,0.0
9,0.0
10,0.0
11,0.0
12,0.0
2,2, 1, 2, 0,18,40.00,50.00,Wednesday
7,27.1
8,0.0
9,0.0
10,0.0
11,0.0
12,0.0
2,2, 1, 2, 0,18,50.00,60.00,Wednesday
7,27.7
8,0.0
9,0.0
10,0.0
11,0.0
12,0.0
2,2, 1, 2, 0,19, 0.00,10.00,Wednesday
7,27.0
8,0.0
9,0.0
10,0.0
11,0.0
12,0.0
2,2, 1, 2, 0,19,10.00,20.00,Wednesday
7,26.9
8,0.0
9,0.0
10,0.0
11,0.0
12,0.0
2,2, 1, 2, 0,19,20.00,30.00,Wednesday
7,26.7
8,0.0
9,0.0
10,0.0
11,0.0
12,0.0
2,2, 1, 2, 0,19,30.00,40.00,Wednesday
7,26.1
8,0.0
9,0.0
10,0.0
11,0.0
12,0.0
2,2, 1, 2, 0,19,40.00,50.00,Wednesday
7,25.8
8,0.0
9,0.0
10,0.0
11,0.0
12,0.0
2,2, 1, 2, 0,19,50.00,60.00,Wednesday
7,25.3
8,0.0
9,0.0
10,0.0
11,0.0
12,0.0
2,2, 1, 2, 0,20, 0.00,10.00,Wednesday
7,25.0
8,0.0
9,0.0
10,0.0
11,0.0
12,0.0
2,2, 1, 2, 0,20,10.00,20.00,Wednesday
7,24.1
8,0.0
9,0.0
10,0.0
11,0.0
12,0.0
2,2, 1, 2, 0,20,20.00,30.00,Wednesday
7,23.9
8,0.0
9,0.0
10,0.0
11,0.0
12,0.0
2,2, 1, 2, 0,20,30.00,40.00,Wednesday
7,23.0
8,0.0
9,0.0
10,0.0
11,0.0
12,0.0
2,2, 1, 2, 0,20,40.00,50.00,Wednesday
7,22.0
8,0.0
9,0.0
10,0.0
11,0.0
12,0.0
2,2, 1, 2, 0,20,50.00,60.00,Wednesday
7,21.6
8,0.0
9,0.0
10,0.0
11,0.0
12,0.0
2,2, 1, 2, 0,21, 0.00,10.00,Wednesday
7,21.5
8,0.0
9,0.0
10,0.0
11,0.0
12,0.0
2,2, 1, 2, 0,21,10.00,20.00,Wednesday
7,21.3
8,0.0
9,0.0
10,0.0
11,0.0
12,0.0
2,2, 1, 2, 0,21,20.00,30.00,Wednesday
7,21.2
8,0.0
9,0.0
10,0.0
11,0.0
12,0.0
2,2, 1, 2, 0,21,30.00,40.00,Wednesday
7,20.9
8,0.0
9,0.0
10,0.0
11,0.0
12,0.0
2,2, 1, 2, 0,21,40.00,50.00,Wednesday
7,21.0
8,0.0
9,0.0
10,0.0
11,0.0
12,0.0
2,2, 1, 2, 0,21,50.00,60.00,Wednesday
7,20.9
8,0.0
9,0.0
10,0.0
11,0.0
12,0.0
2,2, 1, 2, 0,22, 0.00,10.00,Wednesday
7,20.6
8,0.0
9,0.0
10,0.0
11,0.0
12,0.0
2,2, 1, 2, 0,22,10.00,20.00,Wednesday
7,20.4
8,0.0
9,0.0
10,0.0
11,0.0
12,0.0
2,2, 1, 2, 0,22,20.00,30.00,Wednesday
7,20.4
8,0.0
9,0.0
10,0.0
11,0.0
12,0.0
2,2, 1, 2, 0,22,30.00,40.00,Wednesday
7,20.5
8,0.0
9,0.0
10,0.0
11,0.0
12,0.0
2,2, 1, 2, 0,22,40.00,50.00,Wednesday
7,20.2
8,0.0
9,0.0
10,0.0
11,0.0
12,0.0
2,2, 1, 2, 0,22,50.00,60.00,Wednesday
7,19.8
8,0.0
9,0.0
10,0.0
11,0.0
12,0.0
2,2, 1, 2, 0,23, 0.00,10.00,Wednesday
7,19.7
8,0.0
9,0.0
10,0.0
11,0.0
12,0.0
2,2, 1, 2, 0,23,10.00,20.00,Wednesday
7,19.7
8,0.0
9,0.0
10,0.0
11,0.0
12,0.0
2,2, 1, 2, 0,23,20.00,30.00,Wednesday
7,19.7
8,0.0
9,0.0
10,0.0
11,0.0
12,0.0
2,2, 1, 2, 0,23,30.00,40.00,Wednesday
7,19.5
8,0.0
9,0.0
10,0.0
11,0.0
12,0.0
2,2, 1, 2, 0,23,40.00,50.00,Wednesday
7,19.9
8,0.0
9,0.0
10,0.0
11,0.0
12,0.0
2,2, 1, 2, 0,23,50.00,60.00,Wednesday
7,20.4
8,0.0
9,0.0
10,0.0
11,0.0
12,0.0
2,2, 1, 2, 0,24, 0.00,10.00,Wednesday
7,19.9
8,0.0
9,0.0
10,0.0
11,0.0
12,0.0
2,2, 1, 2, 0,24,10.00,20.00,Wednesday
7,19.5
8,0.0
9,0.0
10,0.0
11,0.0
12,0.0
2,2, 1, 2, 0,24,20.00,30.00,Wednesday
7,19.8
8,0.0
9,0.0
10,0.0
11,0.0
12,0.0
2,2, 1, 2, 0,24,30.00,40.00,Wednesday
7,19.6
8,0.0
9,0.0
10,0.0
11,0.0
12,0.0
2,2, 1, 2, 0,24,40.00,50.00,Wednesday
7,19.6
8,0.0
9,0.0
10,0.0
11,0.0
12,0.0
2,2, 1, 2, 0,24,50.00,60.00,Wednesday
7,19.4
8,0.0
9,0.0
10,0.0
11,0.0
12,0.0
End of Data
 Number of Records Written=        1728
