Program Version,EnergyPlus, Version 9.5.0-de239b2e5f, YMD=2021.12.09 19:15
1,5,Environment Title[],Latitude[deg],Longitude[deg],Time Zone[],Elevation[m]
2,8,Day of Simulation[],Month[],Day of Month[],DST Indicator[1=yes 0=no],Hour[],StartMinute[],EndMinute[],DayType
3,5,Cumulative Day of Simulation[],Month[],Day of Month[],DST Indicator[1=yes 0=no],DayType  ! When Daily Report Variables Requested
4,2,Cumulative Days of Simulation[],Month[]  ! When Monthly Report Variables Requested
5,1,Cumulative Days of Simulation[] ! When Run Period Report Variables Requested
6,1,Calendar Year of Simulation[] ! When Annual Report Variables Requested
148,1,THERMAL ZONE: JORGE,Zone Mean Air Temperature [C] !TimeStep
596,1,JORGE,Zone Thermal Comfort Fanger Model PMV [] !TimeStep
597,1,JORGE,Zone Thermal Comfort Fanger Model PPD [%] !TimeStep
End of Data Dictionary
1,RUN PERIOD 1,  18.85, -99.14,  -6.00,1280.00
2,1, 5, 3, 0, 1, 0.00,10.00,Wednesday
148,26.07990384378977
596,-1.2662231037978685
597,38.54410502781281
2,1, 5, 3, 0, 1,10.00,20.00,Wednesday
148,26.024615011682319
596,-1.2887447750458534
597,39.69087308340332
2,1, 5, 3, 0, 1,20.00,30.00,Wednesday
148,26.062614102547838
596,-1.2785791110841905
597,39.17175252500073
2,1, 5, 3, 0, 1,30.00,40.00,Wednesday
148,26.058078053063495
596,-1.2863354115151194
597,39.567617356241587
2,1, 5, 3, 0, 1,40.00,50.00,Wednesday
148,25.973152138917198
596,-1.3170476350199343
597,41.14855399401123
2,1, 5, 3, 0, 1,50.00,60.00,Wednesday
148,25.80356534814202
596,-1.3733660812122462
597,44.09772184217235
2,1, 5, 3, 0, 2, 0.00,10.00,Wednesday
148,25.665597871669399
596,-1.4228400630568026
597,46.73275908509987
2,1, 5, 3, 0, 2,10.00,20.00,Wednesday
148,25.571517417087749
596,-1.460058546037795
597,48.73600376517676
2,1, 5, 3, 0, 2,20.00,30.00,Wednesday
148,25.416951115686666
596,-1.515527980665684
597,51.74428002976806
2,1, 5, 3, 0, 2,30.00,40.00,Wednesday
148,25.210679961021609
596,-1.5843170631156017
597,55.491412400509108
2,1, 5, 3, 0, 2,40.00,50.00,Wednesday
148,25.183349934992738
596,-1.5989104822579479
597,56.286016241754129
2,1, 5, 3, 0, 2,50.00,60.00,Wednesday
148,25.287150562534579
596,-1.5766994800346948
597,55.07642417328954
2,1, 5, 3, 0, 3, 0.00,10.00,Wednesday
148,25.337739304128538
596,-1.568606838795273
597,54.63545720223518
2,1, 5, 3, 0, 3,10.00,20.00,Wednesday
148,25.49645284370715
596,-1.5271530208386799
597,52.376947068014569
2,1, 5, 3, 0, 3,20.00,30.00,Wednesday
148,25.63181892885313
596,-1.4902596050747206
597,50.371306336735717
2,1, 5, 3, 0, 3,30.00,40.00,Wednesday
148,25.601829950851788
596,-1.5063143043388648
597,51.243251511327098
2,1, 5, 3, 0, 3,40.00,50.00,Wednesday
148,25.566698062737996
596,-1.5205191090249244
597,52.01584859108164
2,1, 5, 3, 0, 3,50.00,60.00,Wednesday
148,25.528586828732068
596,-1.5403992435514405
597,53.098362234971727
2,1, 5, 3, 0, 4, 0.00,10.00,Wednesday
148,25.49279790510084
596,-1.558160215617409
597,54.06615393922155
2,1, 5, 3, 0, 4,10.00,20.00,Wednesday
148,25.40496880632277
596,-1.5886707691052214
597,55.728534703780429
2,1, 5, 3, 0, 4,20.00,30.00,Wednesday
148,25.39590832137244
596,-1.6029404387391669
597,56.50531764973814
2,1, 5, 3, 0, 4,30.00,40.00,Wednesday
148,25.132269084086905
596,-1.6926774627569297
597,61.35925710573024
2,1, 5, 3, 0, 4,40.00,50.00,Wednesday
148,24.765950285441787
596,-1.8233681433901735
597,68.22088989082833
2,1, 5, 3, 0, 4,50.00,60.00,Wednesday
148,24.625781337924214
596,-1.8793489479507089
597,71.03789787162784
2,1, 5, 3, 0, 5, 0.00,10.00,Wednesday
148,24.576942214578638
596,-1.9077608182050088
597,72.43163065500609
2,1, 5, 3, 0, 5,10.00,20.00,Wednesday
148,24.78666343227826
596,-1.8530809458199247
597,69.7271466138239
2,1, 5, 3, 0, 5,20.00,30.00,Wednesday
148,24.97474956012544
596,-1.7954576472577897
597,66.78523129554
2,1, 5, 3, 0, 5,30.00,40.00,Wednesday
148,25.103135569814034
596,-1.760930302666951
597,64.9845015225025
2,1, 5, 3, 0, 5,40.00,50.00,Wednesday
148,25.036937827205123
596,-1.7800239232661433
597,65.9834795192492
2,1, 5, 3, 0, 5,50.00,60.00,Wednesday
148,24.797052414018613
596,-1.865237533714297
597,70.33629320102054
2,1, 5, 3, 0, 6, 0.00,10.00,Wednesday
148,24.59498755053681
596,-1.9336965837232599
597,73.68050768321908
2,1, 5, 3, 0, 6,10.00,20.00,Wednesday
148,24.41754170513652
596,-2.0094000124431967
597,77.18478994078761
2,1, 5, 3, 0, 6,20.00,30.00,Wednesday
148,24.404885726837855
596,-2.019495549369047
597,77.63502855981678
2,1, 5, 3, 0, 6,30.00,40.00,Wednesday
148,24.247352979446324
596,-2.086578412146616
597,80.51590226348783
2,1, 5, 3, 0, 6,40.00,50.00,Wednesday
148,24.083287781952217
596,-2.144329951705931
597,82.83254780599296
2,1, 5, 3, 0, 6,50.00,60.00,Wednesday
148,23.979202152733096
596,-2.187804916688943
597,84.47095848306927
2,1, 5, 3, 0, 7, 0.00,10.00,Wednesday
148,24.05406333114405
596,-2.1699362448733066
597,83.80876949819901
2,1, 5, 3, 0, 7,10.00,20.00,Wednesday
148,24.264168364182216
596,-2.104596105926209
597,81.25541882032138
2,1, 5, 3, 0, 7,20.00,30.00,Wednesday
148,24.359543361094514
596,-2.081368300793408
597,80.29928737766784
2,1, 5, 3, 0, 7,30.00,40.00,Wednesday
148,24.007969772422109
596,-2.198726359931258
597,84.86789562785597
2,1, 5, 3, 0, 7,40.00,50.00,Wednesday
148,23.85784742454867
596,-2.2505061743819647
597,86.6682157032513
2,1, 5, 3, 0, 7,50.00,60.00,Wednesday
148,24.290211349507414
596,-2.1065242719443155
597,81.33366946723089
2,1, 5, 3, 0, 8, 0.00,10.00,Wednesday
148,24.51685070818304
596,-2.0242457086763556
597,77.84541063396779
2,1, 5, 3, 0, 8,10.00,20.00,Wednesday
148,24.26836993865446
596,-2.097858617910578
597,80.98063704342222
2,1, 5, 3, 0, 8,20.00,30.00,Wednesday
148,24.334949983851656
596,-2.064498485064508
597,79.58950950161678
2,1, 5, 3, 0, 8,30.00,40.00,Wednesday
148,24.4912883989652
596,-1.99932450641328
597,76.73128015068638
2,1, 5, 3, 0, 8,40.00,50.00,Wednesday
148,24.712568378662018
596,-1.9081016997356444
597,72.44819331035953
2,1, 5, 3, 0, 8,50.00,60.00,Wednesday
148,24.979284303647917
596,-1.8005523508573416
597,67.0486981515581
2,1, 5, 3, 0, 9, 0.00,10.00,Wednesday
148,25.542926576835926
596,-1.5936979876601097
597,56.00227440874102
2,1, 5, 3, 0, 9,10.00,20.00,Wednesday
148,25.869241002067768
596,-1.4801713793697685
597,49.8242582169021
2,1, 5, 3, 0, 9,20.00,30.00,Wednesday
148,25.99040920506757
596,-1.42788196743502
597,47.00320702735406
2,1, 5, 3, 0, 9,30.00,40.00,Wednesday
148,26.034293001577337
596,-1.3960325777686987
597,45.30046906573928
2,1, 5, 3, 0, 9,40.00,50.00,Wednesday
148,26.112750945893713
596,-1.3488967806455248
597,42.809006525058048
2,1, 5, 3, 0, 9,50.00,60.00,Wednesday
148,26.179765311953774
596,-1.309288682041617
597,40.747192935210438
2,1, 5, 3, 0,10, 0.00,10.00,Wednesday
148,28.468763817374375
596,0.3458079018138396
597,7.487825688103115
2,1, 5, 3, 0,10,10.00,20.00,Wednesday
148,28.717432209740136
596,0.45226134056356007
597,9.268484190643108
2,1, 5, 3, 0,10,20.00,30.00,Wednesday
148,29.01408349322826
596,0.5271406784254157
597,10.81272400808463
2,1, 5, 3, 0,10,30.00,40.00,Wednesday
148,29.504553043584033
596,0.6649727419201889
597,14.290145027908182
2,1, 5, 3, 0,10,40.00,50.00,Wednesday
148,29.612844424114696
596,0.7216732893959045
597,15.959651553178887
2,1, 5, 3, 0,10,50.00,60.00,Wednesday
148,29.541827525755314
596,0.7268723834251728
597,16.1196768446993
2,1, 5, 3, 0,11, 0.00,10.00,Wednesday
148,29.440973523036477
596,0.7062515942006554
597,15.491827770774407
2,1, 5, 3, 0,11,10.00,20.00,Wednesday
148,29.62926234859927
596,0.7648620563576856
597,17.324194940947096
2,1, 5, 3, 0,11,20.00,30.00,Wednesday
148,29.852148896545989
596,0.83561901067932
597,19.731429349897924
2,1, 5, 3, 0,11,30.00,40.00,Wednesday
148,29.93772630884452
596,0.8725818057619067
597,21.072496579770147
2,1, 5, 3, 0,11,40.00,50.00,Wednesday
148,29.956989169591606
596,0.8899300064307884
597,21.72137383436275
2,1, 5, 3, 0,11,50.00,60.00,Wednesday
148,30.028662642328876
596,0.9162462428113239
597,22.729112901915998
2,1, 5, 3, 0,12, 0.00,10.00,Wednesday
148,30.127906359507319
596,0.9524294004909246
597,24.16012331503451
2,1, 5, 3, 0,12,10.00,20.00,Wednesday
148,30.178267952809848
596,0.9659392885229713
597,24.707702498843945
2,1, 5, 3, 0,12,20.00,30.00,Wednesday
148,30.320600907457889
596,1.015789931189138
597,26.78920534207279
2,1, 5, 3, 0,12,30.00,40.00,Wednesday
148,30.39923693107979
596,1.0401798002728733
597,27.84170388473062
2,1, 5, 3, 0,12,40.00,50.00,Wednesday
148,30.531672072595606
596,1.0834939019414379
597,29.76401064849422
2,1, 5, 3, 0,12,50.00,60.00,Wednesday
148,30.651427494098806
596,1.1228947462242117
597,31.569357422009476
2,1, 5, 3, 0,13, 0.00,10.00,Wednesday
148,30.80263400054516
596,1.1746481078264309
597,34.017931701548409
2,1, 5, 3, 0,13,10.00,20.00,Wednesday
148,30.847330738765359
596,1.1925623086017934
597,34.88477196807719
2,1, 5, 3, 0,13,20.00,30.00,Wednesday
148,30.850991166230544
596,1.2091627448035445
597,35.69643694350208
2,1, 5, 3, 0,13,30.00,40.00,Wednesday
148,30.90144038586772
596,1.2075533178447602
597,35.61739943358424
2,1, 5, 3, 0,13,40.00,50.00,Wednesday
148,30.96259722490147
596,1.20339413877403
597,35.41348728903942
2,1, 5, 3, 0,13,50.00,60.00,Wednesday
148,30.96484347407694
596,1.2075072976457118
597,35.61514050395327
2,1, 5, 3, 0,14, 0.00,10.00,Wednesday
148,30.91141655793064
596,1.227073580144419
597,36.580913993376
2,1, 5, 3, 0,14,10.00,20.00,Wednesday
148,31.0078080301692
596,1.2835526387986729
597,39.425427627304198
2,1, 5, 3, 0,14,20.00,30.00,Wednesday
148,31.110800529924114
596,1.3198758262126925
597,41.295170662373198
2,1, 5, 3, 0,14,30.00,40.00,Wednesday
148,31.151004147005204
596,1.339834685558845
597,42.33451646352149
2,1, 5, 3, 0,14,40.00,50.00,Wednesday
148,31.38248982176173
596,1.3974723033759056
597,45.377133820732449
2,1, 5, 3, 0,14,50.00,60.00,Wednesday
148,31.69240552101646
596,1.4573807239004369
597,48.59138417974896
2,1, 5, 3, 0,15, 0.00,10.00,Wednesday
148,31.369486038111427
596,1.3620178982955449
597,43.498732401421317
2,1, 5, 3, 0,15,10.00,20.00,Wednesday
148,31.30095489489758
596,1.3682097773429428
597,43.82528274706496
2,1, 5, 3, 0,15,20.00,30.00,Wednesday
148,31.49321230050163
596,1.4370705939445712
597,47.49687625748231
2,1, 5, 3, 0,15,30.00,40.00,Wednesday
148,31.557215291938307
596,1.4747427200783752
597,49.53019457450477
2,1, 5, 3, 0,15,40.00,50.00,Wednesday
148,31.650863237129273
596,1.4898208498777517
597,50.3474994662839
2,1, 5, 3, 0,15,50.00,60.00,Wednesday
148,31.718098952010345
596,1.5184291493225777
597,51.9021210702328
2,1, 5, 3, 0,16, 0.00,10.00,Wednesday
148,31.758856651480369
596,1.5507229210740273
597,53.6608572634755
2,1, 5, 3, 0,16,10.00,20.00,Wednesday
148,31.829206450332653
596,1.5683421649539702
597,54.62103401621996
2,1, 5, 3, 0,16,20.00,30.00,Wednesday
148,31.868939281175046
596,1.5616164185903479
597,54.25450713033989
2,1, 5, 3, 0,16,30.00,40.00,Wednesday
148,31.796409063822936
596,1.5555345958425738
597,53.92306680840798
2,1, 5, 3, 0,16,40.00,50.00,Wednesday
148,31.946969945329504
596,1.566343230949703
597,54.512102153219668
2,1, 5, 3, 0,16,50.00,60.00,Wednesday
148,31.686955655386883
596,1.4863948491890889
597,50.16164945661844
2,1, 5, 3, 0,17, 0.00,10.00,Wednesday
148,31.457299863842004
596,1.4325852277508267
597,47.2557703023705
2,1, 5, 3, 0,17,10.00,20.00,Wednesday
148,31.267270234866119
596,1.3664065040965386
597,43.73011202318849
2,1, 5, 3, 0,17,20.00,30.00,Wednesday
148,31.00239878004104
596,1.2662495810019244
597,38.54544600445045
2,1, 5, 3, 0,17,30.00,40.00,Wednesday
148,30.7908819391414
596,1.1884210967838743
597,34.6835381032718
2,1, 5, 3, 0,17,40.00,50.00,Wednesday
148,30.6952039670227
596,1.1488687856474594
597,32.78764945685133
2,1, 5, 3, 0,17,50.00,60.00,Wednesday
148,30.751188009660944
596,1.1668693072463137
597,33.64453599295126
2,1, 5, 3, 0,18, 0.00,10.00,Wednesday
148,30.64730422367272
596,1.135921086611574
597,32.17762163654578
2,1, 5, 3, 0,18,10.00,20.00,Wednesday
148,30.550697649449913
596,1.115864830248535
597,31.24341304039352
2,1, 5, 3, 0,18,20.00,30.00,Wednesday
148,30.538381769319817
596,1.123083703550601
597,31.578141049782418
2,1, 5, 3, 0,18,30.00,40.00,Wednesday
148,30.56277676266636
596,1.140352819525683
597,32.38581719215554
2,1, 5, 3, 0,18,40.00,50.00,Wednesday
148,30.63652172121899
596,1.1675045122951347
597,33.674957572498758
2,1, 5, 3, 0,18,50.00,60.00,Wednesday
148,30.746763742121599
596,1.2040712516437209
597,35.44665044583287
2,1, 5, 3, 0,19, 0.00,10.00,Wednesday
148,29.22063854598627
596,0.03783590580454493
597,5.029635824580723
2,1, 5, 3, 0,19,10.00,20.00,Wednesday
148,28.871989149791859
596,-0.08469054445064518
597,5.14852174386337
2,1, 5, 3, 0,19,20.00,30.00,Wednesday
148,28.640406298841456
596,-0.1632257371670904
597,5.552166137894346
2,1, 5, 3, 0,19,30.00,40.00,Wednesday
148,28.16056063286139
596,-0.29008667007963409
597,6.748223295207282
2,1, 5, 3, 0,19,40.00,50.00,Wednesday
148,27.90418607891677
596,-0.37352455782465168
597,7.904815252551572
2,1, 5, 3, 0,19,50.00,60.00,Wednesday
148,27.829922052352427
596,-0.4256503076688129
597,8.777869645128817
2,1, 5, 3, 0,20, 0.00,10.00,Wednesday
148,27.807153647375384
596,-0.45017888731967156
597,9.22899323477337
2,1, 5, 3, 0,20,10.00,20.00,Wednesday
148,27.751462184031185
596,-0.4791305497872245
597,9.794771476759579
2,1, 5, 3, 0,20,20.00,30.00,Wednesday
148,27.64457648276663
596,-0.5172844010454096
597,10.595613232644013
2,1, 5, 3, 0,20,30.00,40.00,Wednesday
148,27.521232935116989
596,-0.5551333913512124
597,11.452280406343576
2,1, 5, 3, 0,20,40.00,50.00,Wednesday
148,27.310152982534768
596,-0.6153965688754226
597,12.944455883727315
2,1, 5, 3, 0,20,50.00,60.00,Wednesday
148,27.163413434558416
596,-0.6687720136406882
597,14.397667134406234
2,1, 5, 3, 0,21, 0.00,10.00,Wednesday
148,27.053658108508736
596,-0.7123251219027114
597,15.674847448476669
2,1, 5, 3, 0,21,10.00,20.00,Wednesday
148,26.990674594143785
596,-0.7462786250684007
597,16.727250882533896
2,1, 5, 3, 0,21,20.00,30.00,Wednesday
148,26.851093182540834
596,-0.8082472237218912
597,18.77511054330722
2,1, 5, 3, 0,21,30.00,40.00,Wednesday
148,26.60780024736904
596,-0.8928440327212233
597,21.83157628144461
2,1, 5, 3, 0,21,40.00,50.00,Wednesday
148,26.6725140794249
596,-0.8837435965462925
597,21.48856699801256
2,1, 5, 3, 0,21,50.00,60.00,Wednesday
148,26.594853432316588
596,-0.9202166139320145
597,22.883583207778288
2,1, 5, 3, 0,22, 0.00,10.00,Wednesday
148,26.61728215932392
596,-0.917857279275466
597,22.791715056094277
2,1, 5, 3, 0,22,10.00,20.00,Wednesday
148,26.58009446815534
596,-0.9325747956291993
597,23.368434175804297
2,1, 5, 3, 0,22,20.00,30.00,Wednesday
148,26.351333752390816
596,-1.0230245963194349
597,27.099106210205649
2,1, 5, 3, 0,22,30.00,40.00,Wednesday
148,26.24326810825351
596,-1.068536906925836
597,29.09266585837821
2,1, 5, 3, 0,22,40.00,50.00,Wednesday
148,26.311480041426134
596,-1.0545945585248875
597,28.47399119658172
2,1, 5, 3, 0,22,50.00,60.00,Wednesday
148,26.312136827638257
596,-1.0612584603469857
597,28.768828310260916
2,1, 5, 3, 0,23, 0.00,10.00,Wednesday
148,26.428583176771285
596,-1.0402461779484685
597,27.84459816713388
2,1, 5, 3, 0,23,10.00,20.00,Wednesday
148,26.448698096258604
596,-1.0309690916746926
597,27.441651925407045
2,1, 5, 3, 0,23,20.00,30.00,Wednesday
148,26.433338949564296
596,-1.043707940609503
597,27.995764974726926
2,1, 5, 3, 0,23,30.00,40.00,Wednesday
148,26.495264156258214
596,-1.042360075161674
597,27.936855034331744
2,1, 5, 3, 0,23,40.00,50.00,Wednesday
148,26.518552935526644
596,-1.040933884696898
597,27.874593881679446
2,1, 5, 3, 0,23,50.00,60.00,Wednesday
148,26.504012165190895
596,-1.046604365388502
597,28.122579894904548
2,1, 5, 3, 0,24, 0.00,10.00,Wednesday
148,26.549109397826944
596,-1.03862791209584
597,27.774082388805654
2,1, 5, 3, 0,24,10.00,20.00,Wednesday
148,26.59163884987672
596,-1.0355049878884848
597,27.63827215341253
2,1, 5, 3, 0,24,20.00,30.00,Wednesday
148,26.531767505746399
596,-1.0589110775962849
597,28.664789467777639
2,1, 5, 3, 0,24,30.00,40.00,Wednesday
148,26.49813575877938
596,-1.0737461060136505
597,29.32558922948246
2,1, 5, 3, 0,24,40.00,50.00,Wednesday
148,26.415297466121865
596,-1.104939941452118
597,30.740149077097884
2,1, 5, 3, 0,24,50.00,60.00,Wednesday
148,26.38913240166398
596,-1.1188572422187369
597,31.38195699485469
2,2, 5, 4, 0, 1, 0.00,10.00,Thursday
148,26.5275107332049
596,-1.0891256026982366
597,30.018812749316397
2,2, 5, 4, 0, 1,10.00,20.00,Thursday
148,26.612632020740564
596,-1.0743832630596928
597,29.354144618408158
2,2, 5, 4, 0, 1,20.00,30.00,Thursday
148,26.520488829824328
596,-1.1038819619557446
597,30.69162574388743
2,2, 5, 4, 0, 1,30.00,40.00,Thursday
148,26.322218840646415
596,-1.1681133461016682
597,33.70412778655641
2,2, 5, 4, 0, 1,40.00,50.00,Thursday
148,26.281394644179039
596,-1.183254502984338
597,34.43318816712363
2,2, 5, 4, 0, 1,50.00,60.00,Thursday
148,26.344552573296079
596,-1.170167184346939
597,33.802614241430877
2,2, 5, 4, 0, 2, 0.00,10.00,Thursday
148,26.450089906610335
596,-1.1453305848146747
597,32.620416089313909
2,2, 5, 4, 0, 2,10.00,20.00,Thursday
148,26.447270601735274
596,-1.1506213048888837
597,32.87062939169279
2,2, 5, 4, 0, 2,20.00,30.00,Thursday
148,26.445632171783147
596,-1.1538184823705349
597,33.02226203489835
2,2, 5, 4, 0, 2,30.00,40.00,Thursday
148,26.39254183548836
596,-1.1745539873125124
597,34.01340274885506
2,2, 5, 4, 0, 2,40.00,50.00,Thursday
148,26.321334300339094
596,-1.199709178472041
597,35.23323867060397
2,2, 5, 4, 0, 2,50.00,60.00,Thursday
148,26.275768055630235
596,-1.2202130168266748
597,36.24107297827171
2,2, 5, 4, 0, 3, 0.00,10.00,Thursday
148,26.29948042666797
596,-1.22277199956023
597,36.36768222189972
2,2, 5, 4, 0, 3,10.00,20.00,Thursday
148,26.19859772523588
596,-1.2626943357287364
597,38.365540790928367
2,2, 5, 4, 0, 3,20.00,30.00,Thursday
148,26.18396352517258
596,-1.2775040233512965
597,39.11699486095705
2,2, 5, 4, 0, 3,30.00,40.00,Thursday
148,26.029299903347505
596,-1.3306623950063624
597,41.85587887667151
2,2, 5, 4, 0, 3,40.00,50.00,Thursday
148,25.90464807769224
596,-1.3733426300250154
597,44.09648175497896
2,2, 5, 4, 0, 3,50.00,60.00,Thursday
148,25.93082398334812
596,-1.3794227857099546
597,44.41830311187585
2,2, 5, 4, 0, 4, 0.00,10.00,Thursday
148,25.889581691347428
596,-1.4031173540280345
597,45.67802379649665
2,2, 5, 4, 0, 4,10.00,20.00,Thursday
148,25.803653085480048
596,-1.4370658052148953
597,47.49661872063643
2,2, 5, 4, 0, 4,20.00,30.00,Thursday
148,25.71885666461599
596,-1.4715896743861732
597,49.35950626549704
2,2, 5, 4, 0, 4,30.00,40.00,Thursday
148,25.614775078832737
596,-1.5113596896849833
597,51.51756383011868
2,2, 5, 4, 0, 4,40.00,50.00,Thursday
148,25.550077197977524
596,-1.5362379350781875
597,52.87168209410689
2,2, 5, 4, 0, 4,50.00,60.00,Thursday
148,25.54003248807234
596,-1.5415252178295545
597,53.15970381756722
2,2, 5, 4, 0, 5, 0.00,10.00,Thursday
148,25.4927621803036
596,-1.5681376905858569
597,54.60989131536118
2,2, 5, 4, 0, 5,10.00,20.00,Thursday
148,25.410164159969669
596,-1.6014459964853374
597,56.4240008793018
2,2, 5, 4, 0, 5,20.00,30.00,Thursday
148,25.27077148041041
596,-1.6442913701180975
597,58.7505027600812
2,2, 5, 4, 0, 5,30.00,40.00,Thursday
148,25.22192761231102
596,-1.6651423949128217
597,59.87772110778986
2,2, 5, 4, 0, 5,40.00,50.00,Thursday
148,25.22548662573697
596,-1.6771942123369035
597,60.52726033190121
2,2, 5, 4, 0, 5,50.00,60.00,Thursday
148,25.182908793748849
596,-1.700400460959068
597,61.77310641214563
2,2, 5, 4, 0, 6, 0.00,10.00,Thursday
148,25.223364096351888
596,-1.6907066683224946
597,61.25352223179579
2,2, 5, 4, 0, 6,10.00,20.00,Thursday
148,24.935750780121876
596,-1.7923999780296596
597,66.62681811214579
2,2, 5, 4, 0, 6,20.00,30.00,Thursday
148,24.8562883079004
596,-1.8258064299445738
597,68.3453860961523
2,2, 5, 4, 0, 6,30.00,40.00,Thursday
148,24.548764888028996
596,-1.9359068908531283
597,73.78585897307899
2,2, 5, 4, 0, 6,40.00,50.00,Thursday
148,24.33399610187633
596,-2.0135981492814958
597,77.37252883246002
2,2, 5, 4, 0, 6,50.00,60.00,Thursday
148,24.401699078984764
596,-1.992553589180075
597,76.4242110950202
2,2, 5, 4, 0, 7, 0.00,10.00,Thursday
148,24.67192540754365
596,-1.912398312461174
597,72.65662309669117
2,2, 5, 4, 0, 7,10.00,20.00,Thursday
148,24.93689571027786
596,-1.830084741128382
597,68.56345749518934
2,2, 5, 4, 0, 7,20.00,30.00,Thursday
148,24.728929779973386
596,-1.8945981028455746
597,71.78915978537109
2,2, 5, 4, 0, 7,30.00,40.00,Thursday
148,24.87713073217784
596,-1.856981218440758
597,69.9230495157887
2,2, 5, 4, 0, 7,40.00,50.00,Thursday
148,25.028133760935096
596,-1.8041928770878995
597,67.23658888690356
2,2, 5, 4, 0, 7,50.00,60.00,Thursday
148,25.1111004745331
596,-1.7742892580272983
597,65.68424107951762
2,2, 5, 4, 0, 8, 0.00,10.00,Thursday
148,25.13376951321313
596,-1.762869388289825
597,65.08629532281342
2,2, 5, 4, 0, 8,10.00,20.00,Thursday
148,25.07720188312381
596,-1.7718160190781647
597,65.5549705789752
2,2, 5, 4, 0, 8,20.00,30.00,Thursday
148,24.988954177706483
596,-1.790745301630269
597,66.54100258153139
2,2, 5, 4, 0, 8,30.00,40.00,Thursday
148,25.044770775217779
596,-1.758701788531347
597,64.86742198605346
2,2, 5, 4, 0, 8,40.00,50.00,Thursday
148,25.20461023482456
596,-1.6885346889302522
597,61.13693571505677
2,2, 5, 4, 0, 8,50.00,60.00,Thursday
148,25.482243635562584
596,-1.5868785934115513
597,55.630930624474789
2,2, 5, 4, 0, 9, 0.00,10.00,Thursday
148,25.737074941409234
596,-1.4958402619810012
597,50.67422197962739
2,2, 5, 4, 0, 9,10.00,20.00,Thursday
148,25.895200949795205
596,-1.4467697175807993
597,48.01901716746842
2,2, 5, 4, 0, 9,20.00,30.00,Thursday
148,26.056812244855928
596,-1.3703641724155074
597,43.93905770416447
2,2, 5, 4, 0, 9,30.00,40.00,Thursday
148,26.222309488315298
596,-1.301073436026421
597,40.323651422159979
2,2, 5, 4, 0, 9,40.00,50.00,Thursday
148,26.375982934488165
596,-1.231498062456023
597,36.800763512041999
2,2, 5, 4, 0, 9,50.00,60.00,Thursday
148,26.4498590224933
596,-1.2081788186308842
597,35.64810848623618
2,2, 5, 4, 0,10, 0.00,10.00,Thursday
148,28.503556394914754
596,0.34194104294641455
597,7.432248145942069
2,2, 5, 4, 0,10,10.00,20.00,Thursday
148,28.616526059826687
596,0.40720770422607729
597,8.455682852982193
2,2, 5, 4, 0,10,20.00,30.00,Thursday
148,28.899736559584118
596,0.48990130779540777
597,10.014477755905034
2,2, 5, 4, 0,10,30.00,40.00,Thursday
148,29.189560871784516
596,0.5608239487665997
597,11.586447716756269
2,2, 5, 4, 0,10,40.00,50.00,Thursday
148,29.359200233516643
596,0.6211432307453089
597,13.094979759451093
2,2, 5, 4, 0,10,50.00,60.00,Thursday
148,29.51997365596557
596,0.6822795303894702
597,14.784999303234102
2,2, 5, 4, 0,11, 0.00,10.00,Thursday
148,29.635400450570523
596,0.7315681050861096
597,16.26520782683781
2,2, 5, 4, 0,11,10.00,20.00,Thursday
148,29.69182201056906
596,0.7636508233833179
597,17.284837376775628
2,2, 5, 4, 0,11,20.00,30.00,Thursday
148,29.773494120330839
596,0.7940519939677294
597,18.291591076727344
2,2, 5, 4, 0,11,30.00,40.00,Thursday
148,29.90270996716834
596,0.8425981038885806
597,19.98029086569133
2,2, 5, 4, 0,11,40.00,50.00,Thursday
148,29.999562668677489
596,0.8716095736015743
597,21.036497911025479
2,2, 5, 4, 0,11,50.00,60.00,Thursday
148,30.13260707039221
596,0.9240606460030904
597,23.03374159117824
2,2, 5, 4, 0,12, 0.00,10.00,Thursday
148,30.273644377996797
596,0.9789940531853655
597,25.243593188199399
2,2, 5, 4, 0,12,10.00,20.00,Thursday
148,30.45289510883317
596,1.03184276860951
597,27.4794648717302
2,2, 5, 4, 0,12,20.00,30.00,Thursday
148,30.591252808039266
596,1.0866440853607618
597,29.90640295833218
2,2, 5, 4, 0,12,30.00,40.00,Thursday
148,30.664244947345403
596,1.1065076442363356
597,30.81212000969431
2,2, 5, 4, 0,12,40.00,50.00,Thursday
148,30.750653080220006
596,1.1377904949493423
597,32.265366207639207
2,2, 5, 4, 0,12,50.00,60.00,Thursday
148,30.762134395442439
596,1.1471778150300028
597,32.70767598339731
2,2, 5, 4, 0,13, 0.00,10.00,Thursday
148,30.829983895743746
596,1.171485336094186
597,33.86589066821365
2,2, 5, 4, 0,13,10.00,20.00,Thursday
148,31.027819905911828
596,1.2452743036269183
597,37.48864904270029
2,2, 5, 4, 0,13,20.00,30.00,Thursday
148,31.11277785100858
596,1.2684129163024709
597,38.655069643521837
2,2, 5, 4, 0,13,30.00,40.00,Thursday
148,31.174219315461444
596,1.2914019705472418
597,39.826962895178088
2,2, 5, 4, 0,13,40.00,50.00,Thursday
148,31.226086617604876
596,1.3058076078315058
597,40.56754330236509
2,2, 5, 4, 0,13,50.00,60.00,Thursday
148,31.317171665036548
596,1.335212419658476
597,42.093105126345658
2,2, 5, 4, 0,14, 0.00,10.00,Thursday
148,31.356379450069665
596,1.3578314236036542
597,43.278326798010947
2,2, 5, 4, 0,14,10.00,20.00,Thursday
148,31.404709094645744
596,1.3625934078896536
597,43.52905563742505
2,2, 5, 4, 0,14,20.00,30.00,Thursday
148,31.405447220337508
596,1.3573636063668245
597,43.2537170855268
2,2, 5, 4, 0,14,30.00,40.00,Thursday
148,31.37773389305415
596,1.3539876060525856
597,43.07623877507068
2,2, 5, 4, 0,14,40.00,50.00,Thursday
148,31.40144910874647
596,1.346072136095119
597,42.66094109533743
2,2, 5, 4, 0,14,50.00,60.00,Thursday
148,31.476661101632418
596,1.4008508042155093
597,45.55715748203653
2,2, 5, 4, 0,15, 0.00,10.00,Thursday
148,31.65151402357279
596,1.4435973534185676
597,47.84812334518748
2,2, 5, 4, 0,15,10.00,20.00,Thursday
148,31.579384142000799
596,1.4286738808951328
597,47.04571379970808
2,2, 5, 4, 0,15,20.00,30.00,Thursday
148,31.60389746925214
596,1.4172866105531808
597,46.43524432214318
2,2, 5, 4, 0,15,30.00,40.00,Thursday
148,31.55408082544873
596,1.3910962130542575
597,45.037846045824739
2,2, 5, 4, 0,15,40.00,50.00,Thursday
148,31.508901627099065
596,1.3939584560957137
597,45.1900774116161
2,2, 5, 4, 0,15,50.00,60.00,Thursday
148,31.61265990067055
596,1.4201773648727092
597,46.590060928301408
2,2, 5, 4, 0,16, 0.00,10.00,Thursday
148,31.802886090778146
596,1.4751521146406857
597,49.552362856029507
2,2, 5, 4, 0,16,10.00,20.00,Thursday
148,31.93706503950811
596,1.5238703581587073
597,52.19824515259553
2,2, 5, 4, 0,16,20.00,30.00,Thursday
148,31.99382923014815
596,1.5419453236874737
597,53.18259122917793
2,2, 5, 4, 0,16,30.00,40.00,Thursday
148,32.04029652972636
596,1.5545636798204568
597,53.870156024580918
2,2, 5, 4, 0,16,40.00,50.00,Thursday
148,32.052688098513048
596,1.5379642183328193
597,52.96571389226221
2,2, 5, 4, 0,16,50.00,60.00,Thursday
148,31.991425414879676
596,1.504269963364984
597,51.132139561233667
2,2, 5, 4, 0,17, 0.00,10.00,Thursday
148,31.895489848517799
596,1.5069190708061716
597,51.276125336330519
2,2, 5, 4, 0,17,10.00,20.00,Thursday
148,32.02110597754416
596,1.5389048870632539
597,53.01695550205573
2,2, 5, 4, 0,17,20.00,30.00,Thursday
148,31.94035437071408
596,1.5116775022097955
597,51.53484708701347
2,2, 5, 4, 0,17,30.00,40.00,Thursday
148,32.02712695451583
596,1.531199562489072
597,52.59728022507479
2,2, 5, 4, 0,17,40.00,50.00,Thursday
148,31.894308420955807
596,1.4945397538085468
597,50.60361329592999
2,2, 5, 4, 0,17,50.00,60.00,Thursday
148,31.979073341983886
596,1.481820019075511
597,49.91360780687001
2,2, 5, 4, 0,18, 0.00,10.00,Thursday
148,31.779324503364788
596,1.4354624808214327
597,47.410407064844047
2,2, 5, 4, 0,18,10.00,20.00,Thursday
148,31.811077757736365
596,1.4392789371828577
597,47.615668230141867
2,2, 5, 4, 0,18,20.00,30.00,Thursday
148,31.801942846598583
596,1.4454811111529467
597,47.949587534554989
2,2, 5, 4, 0,18,30.00,40.00,Thursday
148,31.878339603035959
596,1.4676882021047842
597,49.14841756979612
2,2, 5, 4, 0,18,40.00,50.00,Thursday
148,31.907388596327203
596,1.4793628743046288
597,49.78044801656578
2,2, 5, 4, 0,18,50.00,60.00,Thursday
148,31.826545720075129
596,1.4514609771708634
597,48.27192733390511
2,2, 5, 4, 0,19, 0.00,10.00,Thursday
148,30.2683574990025
596,0.37276630284380476
597,7.892972086508124
2,2, 5, 4, 0,19,10.00,20.00,Thursday
148,29.814317624326514
596,0.22793999940102048
597,6.077964830475366
2,2, 5, 4, 0,19,20.00,30.00,Thursday
148,29.602696215221977
596,0.16774217556018906
597,5.5831835392170039
2,2, 5, 4, 0,19,30.00,40.00,Thursday
148,29.331667979660894
596,0.08749635891628892
597,5.1585292829829829
2,2, 5, 4, 0,19,40.00,50.00,Thursday
148,29.074550051416226
596,0.001389966387295076
597,5.0000399935052119
2,2, 5, 4, 0,19,50.00,60.00,Thursday
148,28.962438144601167
596,-0.06310653397856889
597,5.082453104670151
2,2, 5, 4, 0,20, 0.00,10.00,Thursday
148,28.91166525876866
596,-0.10117222854320619
597,5.211983460986701
2,2, 5, 4, 0,20,10.00,20.00,Thursday
148,28.782328604741957
596,-0.15420910201169225
597,5.492785960446582
2,2, 5, 4, 0,20,20.00,30.00,Thursday
148,28.626894492889247
596,-0.21118844833688117
597,5.925056940729917
2,2, 5, 4, 0,20,30.00,40.00,Thursday
148,28.520781584835875
596,-0.2519733732666176
597,6.317900278730207
2,2, 5, 4, 0,20,40.00,50.00,Thursday
148,28.449666666502205
596,-0.2828375219898548
597,6.661660072741029
2,2, 5, 4, 0,20,50.00,60.00,Thursday
148,28.352747670637848
596,-0.3127440931518511
597,7.033094771797565
2,2, 5, 4, 0,21, 0.00,10.00,Thursday
148,28.276230837112384
596,-0.3399102287121835
597,7.403314153907218
2,2, 5, 4, 0,21,10.00,20.00,Thursday
148,28.25744446393657
596,-0.35086824379419576
597,7.561517132347561
2,2, 5, 4, 0,21,20.00,30.00,Thursday
148,28.243241193566953
596,-0.36502421155091666
597,7.773451467178191
2,2, 5, 4, 0,21,30.00,40.00,Thursday
148,28.2085168722631
596,-0.3752589395830488
597,7.9319967158162119
2,2, 5, 4, 0,21,40.00,50.00,Thursday
148,28.195226204651659
596,-0.3842646647159696
597,8.075199300263549
2,2, 5, 4, 0,21,50.00,60.00,Thursday
148,28.139697174816687
596,-0.4072441413870746
597,8.456305031059287
2,2, 5, 4, 0,22, 0.00,10.00,Thursday
148,28.066147639945404
596,-0.4355201286152803
597,8.956285359941717
2,2, 5, 4, 0,22,10.00,20.00,Thursday
148,28.000576259932236
596,-0.4550914535682461
597,9.322452621628429
2,2, 5, 4, 0,22,20.00,30.00,Thursday
148,27.887210999631365
596,-0.4974134587753389
597,10.170678309350749
2,2, 5, 4, 0,22,30.00,40.00,Thursday
148,27.856908703144336
596,-0.49872164343589739
597,10.198128665920607
2,2, 5, 4, 0,22,40.00,50.00,Thursday
148,27.872509976369185
596,-0.503430798828347
597,10.297555672296696