Program Version,EnergyPlus, Version 9.5.0-de239b2e5f, YMD=2021.11.23 19:25
1,5,Environment Title[],Latitude[deg],Longitude[deg],Time Zone[],Elevation[m]
2,8,Day of Simulation[],Month[],Day of Month[],DST Indicator[1=yes 0=no],Hour[],StartMinute[],EndMinute[],DayType
3,5,Cumulative Day of Simulation[],Month[],Day of Month[],DST Indicator[1=yes 0=no],DayType  ! When Daily Report Variables Requested
4,2,Cumulative Days of Simulation[],Month[]  ! When Monthly Report Variables Requested
5,1,Cumulative Days of Simulation[] ! When Run Period Report Variables Requested
6,1,Calendar Year of Simulation[] ! When Annual Report Variables Requested
80,1,THERMAL ZONE 1,Zone Electric Equipment Total Heating Rate [W] !TimeStep
81,1,THERMAL ZONE 1,Zone Mean Air Temperature [C] !TimeStep
End of Data Dictionary
1,RUN PERIOD 1,  18.85, -99.14,  -6.00,1280.00
2,1, 1, 1, 0, 1, 0.00,10.00,Thursday
80,100.0
81,27.012218701175983
2,1, 1, 1, 0, 1,10.00,20.00,Thursday
80,100.0
81,26.986946922966426
2,1, 1, 1, 0, 1,20.00,30.00,Thursday
80,100.0
81,26.960867517268804
2,1, 1, 1, 0, 1,30.00,40.00,Thursday
80,100.0
81,26.93398031318797
2,1, 1, 1, 0, 1,40.00,50.00,Thursday
80,100.0
81,26.906332877030516
2,1, 1, 1, 0, 1,50.00,60.00,Thursday
80,100.0
81,26.87770469202885
2,1, 1, 1, 0, 2, 0.00,10.00,Thursday
80,100.0
81,26.848223293195045
2,1, 1, 1, 0, 2,10.00,20.00,Thursday
80,100.0
81,26.81803960498705
2,1, 1, 1, 0, 2,20.00,30.00,Thursday
80,100.0
81,26.787229274358844
2,1, 1, 1, 0, 2,30.00,40.00,Thursday
80,100.0
81,26.755770624570638
2,1, 1, 1, 0, 2,40.00,50.00,Thursday
80,100.0
81,26.72368324502418
2,1, 1, 1, 0, 2,50.00,60.00,Thursday
80,100.0
81,26.690972770063959
2,1, 1, 1, 0, 3, 0.00,10.00,Thursday
80,100.0
81,26.657688531078397
2,1, 1, 1, 0, 3,10.00,20.00,Thursday
80,100.0
81,26.623847435098356
2,1, 1, 1, 0, 3,20.00,30.00,Thursday
80,100.0
81,26.589491114845207
2,1, 1, 1, 0, 3,30.00,40.00,Thursday
80,100.0
81,26.554632983434137
2,1, 1, 1, 0, 3,40.00,50.00,Thursday
80,100.0
81,26.519320234918358
2,1, 1, 1, 0, 3,50.00,60.00,Thursday
80,100.0
81,26.483567733461915
2,1, 1, 1, 0, 4, 0.00,10.00,Thursday
80,100.0
81,26.44741096755306
2,1, 1, 1, 0, 4,10.00,20.00,Thursday
80,100.0
81,26.410861096455208
2,1, 1, 1, 0, 4,20.00,30.00,Thursday
80,100.0
81,26.373951117299148
2,1, 1, 1, 0, 4,30.00,40.00,Thursday
80,100.0
81,26.33668624685506
2,1, 1, 1, 0, 4,40.00,50.00,Thursday
80,100.0
81,26.299090133286524
2,1, 1, 1, 0, 4,50.00,60.00,Thursday
80,100.0
81,26.261171543029524
2,1, 1, 1, 0, 5, 0.00,10.00,Thursday
80,100.0
81,26.222947372691548
2,1, 1, 1, 0, 5,10.00,20.00,Thursday
80,100.0
81,26.18442664641095
2,1, 1, 1, 0, 5,20.00,30.00,Thursday
80,100.0
81,26.145630802976059
2,1, 1, 1, 0, 5,30.00,40.00,Thursday
80,100.0
81,26.106563137280195
2,1, 1, 1, 0, 5,40.00,50.00,Thursday
80,100.0
81,26.067248599202505
2,1, 1, 1, 0, 5,50.00,60.00,Thursday
80,100.0
81,26.02769739032333
2,1, 1, 1, 0, 6, 0.00,10.00,Thursday
80,100.0
81,25.987924267644187
2,1, 1, 1, 0, 6,10.00,20.00,Thursday
80,100.0
81,25.94794236543049
2,1, 1, 1, 0, 6,20.00,30.00,Thursday
80,100.0
81,25.90776023814996
2,1, 1, 1, 0, 6,30.00,40.00,Thursday
80,100.0
81,25.867388880193987
2,1, 1, 1, 0, 6,40.00,50.00,Thursday
80,100.0
81,25.826840830448714
2,1, 1, 1, 0, 6,50.00,60.00,Thursday
80,100.0
81,25.786122397447888
2,1, 1, 1, 0, 7, 0.00,10.00,Thursday
80,100.0
81,25.74525031398021
2,1, 1, 1, 0, 7,10.00,20.00,Thursday
80,100.0
81,25.704230694178365
2,1, 1, 1, 0, 7,20.00,30.00,Thursday
80,100.0
81,25.663080453701857
2,1, 1, 1, 0, 7,30.00,40.00,Thursday
80,100.0
81,25.621815137122938
2,1, 1, 1, 0, 7,40.00,50.00,Thursday
80,100.0
81,25.58044984400566
2,1, 1, 1, 0, 7,50.00,60.00,Thursday
80,100.0
81,25.539007057028983
2,1, 1, 1, 0, 8, 0.00,10.00,Thursday
80,100.0
81,25.49750238459716
2,1, 1, 1, 0, 8,10.00,20.00,Thursday
80,100.0
81,25.455957794496169
2,1, 1, 1, 0, 8,20.00,30.00,Thursday
80,100.0
81,25.414389823833227
2,1, 1, 1, 0, 8,30.00,40.00,Thursday
80,100.0
81,25.37281400051012
2,1, 1, 1, 0, 8,40.00,50.00,Thursday
80,100.0
81,25.331247402754838
2,1, 1, 1, 0, 8,50.00,60.00,Thursday
80,100.0
81,25.28970548059677
2,1, 1, 1, 0, 9, 0.00,10.00,Thursday
80,100.0
81,25.248198032103347
2,1, 1, 1, 0, 9,10.00,20.00,Thursday
80,100.0
81,25.206740033640079
2,1, 1, 1, 0, 9,20.00,30.00,Thursday
80,100.0
81,25.16533775553447
2,1, 1, 1, 0, 9,30.00,40.00,Thursday
80,100.0
81,25.124019356024438
2,1, 1, 1, 0, 9,40.00,50.00,Thursday
80,100.0
81,25.082805250831226
2,1, 1, 1, 0, 9,50.00,60.00,Thursday
80,100.0
81,25.041747528477047
2,1, 1, 1, 0,10, 0.00,10.00,Thursday
80,200.0
81,25.66576448738897
2,1, 1, 1, 0,10,10.00,20.00,Thursday
80,200.0
81,26.083949271869856
2,1, 1, 1, 0,10,20.00,30.00,Thursday
80,200.0
81,26.14305562348052
2,1, 1, 1, 0,10,30.00,40.00,Thursday
80,200.0
81,26.10540397035939
2,1, 1, 1, 0,10,40.00,50.00,Thursday
80,200.0
81,26.119696143467679
2,1, 1, 1, 0,10,50.00,60.00,Thursday
80,200.0
81,26.1686121644553
2,1, 1, 1, 0,11, 0.00,10.00,Thursday
80,200.0
81,26.210522100644515
2,1, 1, 1, 0,11,10.00,20.00,Thursday
80,200.0
81,26.237904257086134
2,1, 1, 1, 0,11,20.00,30.00,Thursday
80,200.0
81,26.260267047850584
2,1, 1, 1, 0,11,30.00,40.00,Thursday
80,200.0
81,26.283178617261564
2,1, 1, 1, 0,11,40.00,50.00,Thursday
80,200.0
81,26.306455792009968
2,1, 1, 1, 0,11,50.00,60.00,Thursday
80,200.0
81,26.328901957798018
2,1, 1, 1, 0,12, 0.00,10.00,Thursday
80,200.0
81,26.350556274014506
2,1, 1, 1, 0,12,10.00,20.00,Thursday
80,200.0
81,26.37211075807939
2,1, 1, 1, 0,12,20.00,30.00,Thursday
80,200.0
81,26.394013119887
2,1, 1, 1, 0,12,30.00,40.00,Thursday
80,200.0
81,26.41654198119846
2,1, 1, 1, 0,12,40.00,50.00,Thursday
80,200.0
81,26.43979963228968
2,1, 1, 1, 0,12,50.00,60.00,Thursday
80,200.0
81,26.464042642459103
2,1, 1, 1, 0,13, 0.00,10.00,Thursday
80,200.0
81,26.48937090332378
2,1, 1, 1, 0,13,10.00,20.00,Thursday
80,200.0
81,26.516018489215275
2,1, 1, 1, 0,13,20.00,30.00,Thursday
80,200.0
81,26.544006347803046
2,1, 1, 1, 0,13,30.00,40.00,Thursday
80,200.0
81,26.573527950077894
2,1, 1, 1, 0,13,40.00,50.00,Thursday
80,200.0
81,26.604806765717379
2,1, 1, 1, 0,13,50.00,60.00,Thursday
80,200.0
81,26.637907608816158
2,1, 1, 1, 0,14, 0.00,10.00,Thursday
80,200.0
81,26.672573690572365
2,1, 1, 1, 0,14,10.00,20.00,Thursday
80,200.0
81,26.70890990234135
2,1, 1, 1, 0,14,20.00,30.00,Thursday
80,200.0
81,26.746856529069676
2,1, 1, 1, 0,14,30.00,40.00,Thursday
80,200.0
81,26.786550435806345
2,1, 1, 1, 0,14,40.00,50.00,Thursday
80,200.0
81,26.82786610533514
2,1, 1, 1, 0,14,50.00,60.00,Thursday
80,200.0
81,26.87088077041073
2,1, 1, 1, 0,15, 0.00,10.00,Thursday
80,200.0
81,26.915462612657767
2,1, 1, 1, 0,15,10.00,20.00,Thursday
80,200.0
81,26.96168693269004
2,1, 1, 1, 0,15,20.00,30.00,Thursday
80,200.0
81,27.009420583569978
2,1, 1, 1, 0,15,30.00,40.00,Thursday
80,200.0
81,27.058729110573276
2,1, 1, 1, 0,15,40.00,50.00,Thursday
80,200.0
81,27.109492314554769
2,1, 1, 1, 0,15,50.00,60.00,Thursday
80,200.0
81,27.161768700520438
2,1, 1, 1, 0,16, 0.00,10.00,Thursday
80,200.0
81,27.215450235300677
2,1, 1, 1, 0,16,10.00,20.00,Thursday
80,200.0
81,27.270592113298247
2,1, 1, 1, 0,16,20.00,30.00,Thursday
80,200.0
81,27.327096968672458
2,1, 1, 1, 0,16,30.00,40.00,Thursday
80,200.0
81,27.384996136998976
2,1, 1, 1, 0,16,40.00,50.00,Thursday
80,200.0
81,27.44419720537994
2,1, 1, 1, 0,16,50.00,60.00,Thursday
80,200.0
81,27.50470880038536
2,1, 1, 1, 0,17, 0.00,10.00,Thursday
80,200.0
81,27.566430667520707
2,1, 1, 1, 0,17,10.00,20.00,Thursday
80,200.0
81,27.629343230898468
2,1, 1, 1, 0,17,20.00,30.00,Thursday
80,200.0
81,27.69333174491603
2,1, 1, 1, 0,17,30.00,40.00,Thursday
80,200.0
81,27.7583301364847
2,1, 1, 1, 0,17,40.00,50.00,Thursday
80,200.0
81,27.824217383124183
2,1, 1, 1, 0,17,50.00,60.00,Thursday
80,200.0
81,27.89088900459089
2,1, 1, 1, 0,18, 0.00,10.00,Thursday
80,200.0
81,27.958217491458226
2,1, 1, 1, 0,18,10.00,20.00,Thursday
80,200.0
81,28.026069167505523
2,1, 1, 1, 0,18,20.00,30.00,Thursday
80,200.0
81,28.09431581871959
2,1, 1, 1, 0,18,30.00,40.00,Thursday
80,200.0
81,28.162796601690244
2,1, 1, 1, 0,18,40.00,50.00,Thursday
80,200.0
81,28.23137509778927
2,1, 1, 1, 0,18,50.00,60.00,Thursday
80,200.0
81,28.299854419617444
2,1, 1, 1, 0,19, 0.00,10.00,Thursday
80,100.0
81,27.737714338557717
2,1, 1, 1, 0,19,10.00,20.00,Thursday
80,100.0
81,27.33070400249367
2,1, 1, 1, 0,19,20.00,30.00,Thursday
80,100.0
81,27.250725503386464
2,1, 1, 1, 0,19,30.00,40.00,Thursday
80,100.0
81,27.300881996511479
2,1, 1, 1, 0,19,40.00,50.00,Thursday
80,100.0
81,27.327148141655028
2,1, 1, 1, 0,19,50.00,60.00,Thursday
80,100.0
81,27.314198043540008
2,1, 1, 1, 0,20, 0.00,10.00,Thursday
80,100.0
81,27.295822975794619
2,1, 1, 1, 0,20,10.00,20.00,Thursday
80,100.0
81,27.289089205229368
2,1, 1, 1, 0,20,20.00,30.00,Thursday
80,100.0
81,27.290704708811153
2,1, 1, 1, 0,20,30.00,40.00,Thursday
80,100.0
81,27.29376223595054
2,1, 1, 1, 0,20,40.00,50.00,Thursday
80,100.0
81,27.295848957272236
2,1, 1, 1, 0,20,50.00,60.00,Thursday
80,100.0
81,27.29756295513322
2,1, 1, 1, 0,21, 0.00,10.00,Thursday
80,100.0
81,27.29957077171764
2,1, 1, 1, 0,21,10.00,20.00,Thursday
80,100.0
81,27.30164749842034
2,1, 1, 1, 0,21,20.00,30.00,Thursday
80,100.0
81,27.303349815063556
2,1, 1, 1, 0,21,30.00,40.00,Thursday
80,100.0
81,27.304275193017366
2,1, 1, 1, 0,21,40.00,50.00,Thursday
80,100.0
81,27.30430476027511
2,1, 1, 1, 0,21,50.00,60.00,Thursday
80,100.0
81,27.303270701121379
2,1, 1, 1, 0,22, 0.00,10.00,Thursday
80,100.0
81,27.301127914429175
2,1, 1, 1, 0,22,10.00,20.00,Thursday
80,100.0
81,27.297715051787173
2,1, 1, 1, 0,22,20.00,30.00,Thursday
80,100.0
81,27.29302004868047
2,1, 1, 1, 0,22,30.00,40.00,Thursday
80,100.0
81,27.286730311668167
2,1, 1, 1, 0,22,40.00,50.00,Thursday
80,100.0
81,27.27892550037116
2,1, 1, 1, 0,22,50.00,60.00,Thursday
80,100.0
81,27.269645296192825
2,1, 1, 1, 0,23, 0.00,10.00,Thursday
80,100.0
81,27.258997815250074
2,1, 1, 1, 0,23,10.00,20.00,Thursday
80,100.0
81,27.246925102213685
2,1, 1, 1, 0,23,20.00,30.00,Thursday
80,100.0
81,27.233499360571
2,1, 1, 1, 0,23,30.00,40.00,Thursday
80,100.0
81,27.21869889583488
2,1, 1, 1, 0,23,40.00,50.00,Thursday
80,100.0
81,27.202624263926184
2,1, 1, 1, 0,23,50.00,60.00,Thursday
80,100.0
81,27.185277526080758
2,1, 1, 1, 0,24, 0.00,10.00,Thursday
80,100.0
81,27.166758580174247
2,1, 1, 1, 0,24,10.00,20.00,Thursday
80,100.0
81,27.147078744843083
2,1, 1, 1, 0,24,20.00,30.00,Thursday
80,100.0
81,27.12633502016632
2,1, 1, 1, 0,24,30.00,40.00,Thursday
80,100.0
81,27.10454147467278
2,1, 1, 1, 0,24,40.00,50.00,Thursday
80,100.0
81,27.08178264148849
2,1, 1, 1, 0,24,50.00,60.00,Thursday
80,100.0
81,27.058070226561374
2,2, 1, 2, 0, 1, 0.00,10.00,Friday
80,100.0
81,27.03347998669016
2,2, 1, 2, 0, 1,10.00,20.00,Friday
80,100.0
81,27.00802209425362
2,2, 1, 2, 0, 1,20.00,30.00,Friday
80,100.0
81,26.981756751060727
2,2, 1, 2, 0, 1,30.00,40.00,Friday
80,100.0
81,26.954684990532117
2,2, 1, 2, 0, 1,40.00,50.00,Friday
80,100.0
81,26.926854821650708
2,2, 1, 2, 0, 1,50.00,60.00,Friday
80,100.0
81,26.89804578583136
2,2, 1, 2, 0, 2, 0.00,10.00,Friday
80,100.0
81,26.868382343662004
2,2, 1, 2, 0, 2,10.00,20.00,Friday
80,100.0
81,26.838020961356599
2,2, 1, 2, 0, 2,20.00,30.00,Friday
80,100.0
81,26.807038185380063
2,2, 1, 2, 0, 2,30.00,40.00,Friday
80,100.0
81,26.7754124249612
2,2, 1, 2, 0, 2,40.00,50.00,Friday
80,100.0
81,26.74316412773927
2,2, 1, 2, 0, 2,50.00,60.00,Friday
80,100.0
81,26.710300109194713
2,2, 1, 2, 0, 3, 0.00,10.00,Friday
80,100.0
81,26.676870714339338
2,2, 1, 2, 0, 3,10.00,20.00,Friday
80,100.0
81,26.642891770409695
2,2, 1, 2, 0, 3,20.00,30.00,Friday
80,100.0
81,26.608400896505335
2,2, 1, 2, 0, 3,30.00,40.00,Friday
80,100.0
81,26.573413568669737
2,2, 1, 2, 0, 3,40.00,50.00,Friday
80,100.0
81,26.53797401423753
2,2, 1, 2, 0, 3,50.00,60.00,Friday
80,100.0
81,26.50209471337766
2,2, 1, 2, 0, 4, 0.00,10.00,Friday
80,100.0
81,26.465813371417615
2,2, 1, 2, 0, 4,10.00,20.00,Friday
80,100.0
81,26.42914767327579
2,2, 1, 2, 0, 4,20.00,30.00,Friday
80,100.0
81,26.39213021121726
2,2, 1, 2, 0, 4,30.00,40.00,Friday
80,100.0
81,26.354769857705894
2,2, 1, 2, 0, 4,40.00,50.00,Friday
80,100.0
81,26.317096038031904
2,2, 1, 2, 0, 4,50.00,60.00,Friday
80,100.0
81,26.279119520031814
2,2, 1, 2, 0, 5, 0.00,10.00,Friday
80,100.0
81,26.24086137615789
2,2, 1, 2, 0, 5,10.00,20.00,Friday
80,100.0
81,26.20232783937543
2,2, 1, 2, 0, 5,20.00,30.00,Friday
80,100.0
81,26.163538854033275
2,2, 1, 2, 0, 5,30.00,40.00,Friday
80,100.0
81,26.12449456077071
2,2, 1, 2, 0, 5,40.00,50.00,Friday
80,100.0
81,26.08521161237875
2,2, 1, 2, 0, 5,50.00,60.00,Friday
80,100.0
81,26.045694517412327
2,2, 1, 2, 0, 6, 0.00,10.00,Friday
80,100.0
81,26.005952268631189
2,2, 1, 2, 0, 6,10.00,20.00,Friday
80,100.0
81,25.965994064271933
2,2, 1, 2, 0, 6,20.00,30.00,Friday
80,100.0
81,25.925830968807188
2,2, 1, 2, 0, 6,30.00,40.00,Friday
80,100.0
81,25.88547298428981
2,2, 1, 2, 0, 6,40.00,50.00,Friday
80,100.0
81,25.84493270648959
2,2, 1, 2, 0, 6,50.00,60.00,Friday
80,100.0
81,25.80422128281844
2,2, 1, 2, 0, 7, 0.00,10.00,Friday
80,100.0
81,25.763353228088208
2,2, 1, 2, 0, 7,10.00,20.00,Friday
80,100.0
81,25.722337025809826
2,2, 1, 2, 0, 7,20.00,30.00,Friday
80,100.0
81,25.681190571324099
2,2, 1, 2, 0, 7,30.00,40.00,Friday
80,100.0
81,25.639925596924
2,2, 1, 2, 0, 7,40.00,50.00,Friday
80,100.0
81,25.598556748285625
2,2, 1, 2, 0, 7,50.00,60.00,Friday
80,100.0
81,25.55709478891365
2,2, 1, 2, 0, 8, 0.00,10.00,Friday
80,100.0
81,25.515548147560808
2,2, 1, 2, 0, 8,10.00,20.00,Friday
80,100.0
81,25.4739200347921
2,2, 1, 2, 0, 8,20.00,30.00,Friday
80,100.0
81,25.43221356305851
2,2, 1, 2, 0, 8,30.00,40.00,Friday
80,100.0
81,25.390427110287413
2,2, 1, 2, 0, 8,40.00,50.00,Friday
80,100.0
81,25.348557126830849
2,2, 1, 2, 0, 8,50.00,60.00,Friday
80,100.0
81,25.306601490026574
2,2, 1, 2, 0, 9, 0.00,10.00,Friday
80,100.0
81,25.264558987252756
2,2, 1, 2, 0, 9,10.00,20.00,Friday
80,100.0
81,25.222435787983636
2,2, 1, 2, 0, 9,20.00,30.00,Friday
80,100.0
81,25.1802343593566
2,2, 1, 2, 0, 9,30.00,40.00,Friday
80,100.0
81,25.137971110663864
2,2, 1, 2, 0, 9,40.00,50.00,Friday
80,100.0
81,25.095677986881375
2,2, 1, 2, 0, 9,50.00,60.00,Friday
80,100.0
81,25.053404665204654
2,2, 1, 2, 0,10, 0.00,10.00,Friday
80,200.0
81,25.676239913221058
2,2, 1, 2, 0,10,10.00,20.00,Friday
80,200.0
81,26.092642052513093
2,2, 1, 2, 0,10,20.00,30.00,Friday
80,200.0
81,26.15017144913087
2,2, 1, 2, 0,10,30.00,40.00,Friday
80,200.0
81,26.110947535805868
2,2, 1, 2, 0,10,40.00,50.00,Friday
80,200.0
81,26.123337206679304
2,2, 1, 2, 0,10,50.00,60.00,Friday
80,200.0
81,26.17042873630533
2,2, 1, 2, 0,11, 0.00,10.00,Friday
80,200.0
81,26.210701700415237
2,2, 1, 2, 0,11,10.00,20.00,Friday
80,200.0
81,26.236484697276788
2,2, 1, 2, 0,11,20.00,30.00,Friday
80,200.0
81,26.257221640347234
2,2, 1, 2, 0,11,30.00,40.00,Friday
80,200.0
81,26.27849843458096
2,2, 1, 2, 0,11,40.00,50.00,Friday
80,200.0
81,26.300151731268508
2,2, 1, 2, 0,11,50.00,60.00,Friday
80,200.0
81,26.320974787285196
2,2, 1, 2, 0,12, 0.00,10.00,Friday
80,200.0
81,26.340993571194539
2,2, 1, 2, 0,12,10.00,20.00,Friday
80,200.0
81,26.36088283901926
2,2, 1, 2, 0,12,20.00,30.00,Friday
80,200.0
81,26.381085006175764
2,2, 1, 2, 0,12,30.00,40.00,Friday
80,200.0
81,26.401870617621534
2,2, 1, 2, 0,12,40.00,50.00,Friday
80,200.0
81,26.42334265722796
2,2, 1, 2, 0,12,50.00,60.00,Friday
80,200.0
81,26.44575850791297
2,2, 1, 2, 0,13, 0.00,10.00,Friday
80,200.0
81,26.469224819580679
2,2, 1, 2, 0,13,10.00,20.00,Friday
80,200.0
81,26.493991368328599
2,2, 1, 2, 0,13,20.00,30.00,Friday
80,200.0
81,26.520093884182069
2,2, 1, 2, 0,13,30.00,40.00,Friday
80,200.0
81,26.54774498279619
2,2, 1, 2, 0,13,40.00,50.00,Friday
80,200.0
81,26.576924182929927
2,2, 1, 2, 0,13,50.00,60.00,Friday
80,200.0
81,26.608069539409266
2,2, 1, 2, 0,14, 0.00,10.00,Friday
80,200.0
81,26.64099963995079
2,2, 1, 2, 0,14,10.00,20.00,Friday
80,200.0
81,26.675700258133888
2,2, 1, 2, 0,14,20.00,30.00,Friday
80,200.0
81,26.712045270722297
2,2, 1, 2, 0,14,30.00,40.00,Friday
80,200.0
81,26.7501910887988
2,2, 1, 2, 0,14,40.00,50.00,Friday
80,200.0
81,26.790014006409355
2,2, 1, 2, 0,14,50.00,60.00,Friday
80,200.0
81,26.831600180747029
2,2, 1, 2, 0,15, 0.00,10.00,Friday
80,200.0
81,26.874796176960865
2,2, 1, 2, 0,15,10.00,20.00,Friday
80,200.0
81,26.919668757600925
2,2, 1, 2, 0,15,20.00,30.00,Friday
80,200.0
81,26.96607586342669
2,2, 1, 2, 0,15,30.00,40.00,Friday
80,200.0
81,27.014077760313744
2,2, 1, 2, 0,15,40.00,50.00,Friday
80,200.0
81,27.063545103900645
2,2, 1, 2, 0,15,50.00,60.00,Friday
80,200.0
81,27.11452863038653
2,2, 1, 2, 0,16, 0.00,10.00,Friday
80,200.0
81,27.16691619352154
2,2, 1, 2, 0,16,10.00,20.00,Friday
80,200.0
81,27.22075419043927
2,2, 1, 2, 0,16,20.00,30.00,Friday
80,200.0
81,27.27594037945066
2,2, 1, 2, 0,16,30.00,40.00,Friday
80,200.0
81,27.332511916112588
2,2, 1, 2, 0,16,40.00,50.00,Friday
80,200.0
81,27.390373379522776
2,2, 1, 2, 0,16,50.00,60.00,Friday
80,200.0
81,27.449546428207986
2,2, 1, 2, 0,17, 0.00,10.00,Friday
80,200.0
81,27.509935847151476
2,2, 1, 2, 0,17,10.00,20.00,Friday
80,200.0
81,27.57154463071464
2,2, 1, 2, 0,17,20.00,30.00,Friday
80,200.0
81,27.634279243703138
2,2, 1, 2, 0,17,30.00,40.00,Friday
80,200.0
81,27.69811583363231
2,2, 1, 2, 0,17,40.00,50.00,Friday
80,200.0
81,27.7629557942837
2,2, 1, 2, 0,17,50.00,60.00,Friday
80,200.0
81,27.828749358220226
2,2, 1, 2, 0,18, 0.00,10.00,Friday
80,200.0
81,27.895390942818083
2,2, 1, 2, 0,18,10.00,20.00,Friday
80,200.0
81,27.96279617849858
2,2, 1, 2, 0,18,20.00,30.00,Friday
80,200.0
81,28.03086354743442
2,2, 1, 2, 0,18,30.00,40.00,Friday
80,200.0
81,28.09946706859438
2,2, 1, 2, 0,18,40.00,50.00,Friday
80,200.0
81,28.168501982880387
2,2, 1, 2, 0,18,50.00,60.00,Friday
80,200.0
81,28.23781287822198
2,2, 1, 2, 0,19, 0.00,10.00,Friday
80,100.0
81,27.67628455280166
2,2, 1, 2, 0,19,10.00,20.00,Friday
80,100.0
81,27.27127144788821
2,2, 1, 2, 0,19,20.00,30.00,Friday
80,100.0
81,27.193685898666975
2,2, 1, 2, 0,19,30.00,40.00,Friday
80,100.0
81,27.246339334289904
2,2, 1, 2, 0,19,40.00,50.00,Friday
80,100.0
81,27.275357845857294
2,2, 1, 2, 0,19,50.00,60.00,Friday
80,100.0
81,27.26555474077583
2,2, 1, 2, 0,20, 0.00,10.00,Friday
80,100.0
81,27.250758773659098
2,2, 1, 2, 0,20,10.00,20.00,Friday
80,100.0
81,27.24806250084363
2,2, 1, 2, 0,20,20.00,30.00,Friday
80,100.0
81,27.25414542923214
2,2, 1, 2, 0,20,30.00,40.00,Friday
80,100.0
81,27.262066539891014
2,2, 1, 2, 0,20,40.00,50.00,Friday
80,100.0
81,27.269546352758679
2,2, 1, 2, 0,20,50.00,60.00,Friday
80,100.0
81,27.27706786427639
2,2, 1, 2, 0,21, 0.00,10.00,Friday
80,100.0
81,27.28506607182939
2,2, 1, 2, 0,21,10.00,20.00,Friday
80,100.0
81,27.293196162062676
2,2, 1, 2, 0,21,20.00,30.00,Friday
80,100.0
81,27.300970532444173
2,2, 1, 2, 0,21,30.00,40.00,Friday
80,100.0
81,27.307774444418567
2,2, 1, 2, 0,21,40.00,50.00,Friday
80,100.0
81,27.31351483724272
2,2, 1, 2, 0,21,50.00,60.00,Friday
80,100.0
81,27.3180987243122
2,2, 1, 2, 0,22, 0.00,10.00,Friday
80,100.0
81,27.32146233465267
2,2, 1, 2, 0,22,10.00,20.00,Friday
80,100.0
81,27.32336539986352
2,2, 1, 2, 0,22,20.00,30.00,Friday
80,100.0
81,27.3237372287816
2,2, 1, 2, 0,22,30.00,40.00,Friday
80,100.0
81,27.322416458625296
2,2, 1, 2, 0,22,40.00,50.00,Friday
80,100.0
81,27.319417726756155
2,2, 1, 2, 0,22,50.00,60.00,Friday
80,100.0
81,27.31445995131747
2,2, 1, 2, 0,23, 0.00,10.00,Friday
80,100.0
81,27.307614813072229
2,2, 1, 2, 0,23,10.00,20.00,Friday
80,100.0
81,27.298887797800984
2,2, 1, 2, 0,23,20.00,30.00,Friday
80,100.0
81,27.288400017591756
2,2, 1, 2, 0,23,30.00,40.00,Friday
80,100.0
81,27.276095432210608
2,2, 1, 2, 0,23,40.00,50.00,Friday
80,100.0
81,27.26207101432377
2,2, 1, 2, 0,23,50.00,60.00,Friday
80,100.0
81,27.24629995813021
2,2, 1, 2, 0,24, 0.00,10.00,Friday
80,100.0
81,27.22889983277572
2,2, 1, 2, 0,24,10.00,20.00,Friday
80,100.0
81,27.209862188554867
2,2, 1, 2, 0,24,20.00,30.00,Friday
80,100.0
81,27.189306295466375
2,2, 1, 2, 0,24,30.00,40.00,Friday
80,100.0
81,27.16722994406938
2,2, 1, 2, 0,24,40.00,50.00,Friday
80,100.0
81,27.143742690333686
2,2, 1, 2, 0,24,50.00,60.00,Friday
80,100.0
81,27.118850462316194
2,3, 1, 3, 0, 1, 0.00,10.00,Saturday
80,100.0
81,27.092654419259984
2,3, 1, 3, 0, 1,10.00,20.00,Saturday
80,100.0
81,27.0651621660536
2,3, 1, 3, 0, 1,20.00,30.00,Saturday
80,100.0
81,27.03624899913908
2,3, 1, 3, 0, 1,30.00,40.00,Saturday
80,100.0
81,27.005998572797144
2,3, 1, 3, 0, 1,40.00,50.00,Saturday
80,100.0
81,26.974671535021096
2,3, 1, 3, 0, 1,50.00,60.00,Saturday
80,100.0
81,26.94234204216045
2,3, 1, 3, 0, 2, 0.00,10.00,Saturday
80,100.0
81,26.909071006635558
2,3, 1, 3, 0, 2,10.00,20.00,Saturday
80,100.0
81,26.87485419916679
2,3, 1, 3, 0, 2,20.00,30.00,Saturday
80,100.0
81,26.839770647265366
2,3, 1, 3, 0, 2,30.00,40.00,Saturday
80,100.0
81,26.803857009817347
2,3, 1, 3, 0, 2,40.00,50.00,Saturday
80,100.0
81,26.767183473847884
2,3, 1, 3, 0, 2,50.00,60.00,Saturday
80,100.0
81,26.729778229254074
2,3, 1, 3, 0, 3, 0.00,10.00,Saturday
80,100.0
81,26.691701276414386
2,3, 1, 3, 0, 3,10.00,20.00,Saturday
80,100.0
81,26.65297712761148
2,3, 1, 3, 0, 3,20.00,30.00,Saturday
80,100.0
81,26.613657520938703
2,3, 1, 3, 0, 3,30.00,40.00,Saturday
80,100.0
81,26.573759929218164
2,3, 1, 3, 0, 3,40.00,50.00,Saturday
80,100.0
81,26.533328557356599
2,3, 1, 3, 0, 3,50.00,60.00,Saturday
80,100.0
81,26.492378467659
2,3, 1, 3, 0, 4, 0.00,10.00,Saturday
80,100.0
81,26.450943528916988
2,3, 1, 3, 0, 4,10.00,20.00,Saturday
80,100.0
81,26.409039659798365
2,3, 1, 3, 0, 4,20.00,30.00,Saturday
80,100.0
81,26.366694950571096
2,3, 1, 3, 0, 4,30.00,40.00,Saturday
80,100.0
81,26.323925881487825
2,3, 1, 3, 0, 4,40.00,50.00,Saturday
80,100.0
81,26.28075884791617
2,3, 1, 3, 0, 4,50.00,60.00,Saturday
80,100.0
81,26.237214151711006
2,3, 1, 3, 0, 5, 0.00,10.00,Saturday
80,100.0
81,26.193315373732369
2,3, 1, 3, 0, 5,10.00,20.00,Saturday
80,100.0
81,26.149083555139958
2,3, 1, 3, 0, 5,20.00,30.00,Saturday
80,100.0
81,26.104546140564108
2,3, 1, 3, 0, 5,30.00,40.00,Saturday
80,100.0
81,26.0597248588572
2,3, 1, 3, 0, 5,40.00,50.00,Saturday
80,100.0
81,26.014650288227484
2,3, 1, 3, 0, 5,50.00,60.00,Saturday
80,100.0
81,25.96934000892544
2,3, 1, 3, 0, 6, 0.00,10.00,Saturday
80,100.0
81,25.92382826570313
2,3, 1, 3, 0, 6,10.00,20.00,Saturday
80,100.0
81,25.878140442767728
2,3, 1, 3, 0, 6,20.00,30.00,Saturday
80,100.0
81,25.832309168378214
2,3, 1, 3, 0, 6,30.00,40.00,Saturday
80,100.0
81,25.78635736449907
2,3, 1, 3, 0, 6,40.00,50.00,Saturday
80,100.0
81,25.74031751014814
2,3, 1, 3, 0, 6,50.00,60.00,Saturday
80,100.0
81,25.69421873464482
2,3, 1, 3, 0, 7, 0.00,10.00,Saturday
80,100.0
81,25.648082655986394
2,3, 1, 3, 0, 7,10.00,20.00,Saturday
80,100.0
81,25.601942648144218
2,3, 1, 3, 0, 7,20.00,30.00,Saturday
80,100.0
81,25.555815571231805
2,3, 1, 3, 0, 7,30.00,40.00,Saturday
80,100.0
81,25.509730464927519
2,3, 1, 3, 0, 7,40.00,50.00,Saturday
80,100.0
81,25.463702505503784
2,3, 1, 3, 0, 7,50.00,60.00,Saturday
80,100.0
81,25.417759772690855
2,3, 1, 3, 0, 8, 0.00,10.00,Saturday
80,100.0
81,25.371906531463475
2,3, 1, 3, 0, 8,10.00,20.00,Saturday
80,100.0
81,25.32616192890989
2,3, 1, 3, 0, 8,20.00,30.00,Saturday
80,100.0
81,25.2805232957139
2,3, 1, 3, 0, 8,30.00,40.00,Saturday
80,100.0
81,25.235004103493187
2,3, 1, 3, 0, 8,40.00,50.00,Saturday
80,100.0
81,25.189593799054998
2,3, 1, 3, 0, 8,50.00,60.00,Saturday
80,100.0
81,25.144300511118887
2,3, 1, 3, 0, 9, 0.00,10.00,Saturday
80,100.0
81,25.099109775281169
2,3, 1, 3, 0, 9,10.00,20.00,Saturday
80,100.0
81,25.054029084036125
2,3, 1, 3, 0, 9,20.00,30.00,Saturday
80,100.0
81,25.009050492903208
2,3, 1, 3, 0, 9,30.00,40.00,Saturday
80,100.0
81,24.96418876085664
2,3, 1, 3, 0, 9,40.00,50.00,Saturday
80,100.0
81,24.919456842906049
2,3, 1, 3, 0, 9,50.00,60.00,Saturday
80,100.0
81,24.87489574980127
2,3, 1, 3, 0,10, 0.00,10.00,Saturday
80,100.0
81,24.83055388686759
2,3, 1, 3, 0,10,10.00,20.00,Saturday
80,100.0
81,24.786529821953168
2,3, 1, 3, 0,10,20.00,30.00,Saturday
80,100.0
81,24.742923183509743
2,3, 1, 3, 0,10,30.00,40.00,Saturday
80,100.0
81,24.699894824728444
2,3, 1, 3, 0,10,40.00,50.00,Saturday
80,100.0
81,24.657588063671914
2,3, 1, 3, 0,10,50.00,60.00,Saturday
80,100.0
81,24.616227274527028
2,3, 1, 3, 0,11, 0.00,10.00,Saturday
80,100.0
81,24.57598535266643
2,3, 1, 3, 0,11,10.00,20.00,Saturday
80,100.0
81,24.537131751148164
2,3, 1, 3, 0,11,20.00,30.00,Saturday
80,100.0
81,24.49983663419269
2,3, 1, 3, 0,11,30.00,40.00,Saturday
80,100.0
81,24.464390952208264
2,3, 1, 3, 0,11,40.00,50.00,Saturday
80,100.0
81,24.43093289712777
2,3, 1, 3, 0,11,50.00,60.00,Saturday
80,100.0
81,24.399746524074634
2,3, 1, 3, 0,12, 0.00,10.00,Saturday
80,100.0
81,24.371122572709387
2,3, 1, 3, 0,12,10.00,20.00,Saturday
80,100.0
81,24.34523736567017
2,3, 1, 3, 0,12,20.00,30.00,Saturday
80,100.0
81,24.321951072619613
2,3, 1, 3, 0,12,30.00,40.00,Saturday
80,100.0
81,24.30146797754727
2,3, 1, 3, 0,12,40.00,50.00,Saturday
80,100.0
81,24.283798522906378
2,3, 1, 3, 0,12,50.00,60.00,Saturday
80,100.0
81,24.269187548783095
2,3, 1, 3, 0,13, 0.00,10.00,Saturday
80,100.0
81,24.257565423974869
2,3, 1, 3, 0,13,10.00,20.00,Saturday
80,100.0
81,24.249291435550924
2,3, 1, 3, 0,13,20.00,30.00,Saturday
80,100.0
81,24.244107928523144
2,3, 1, 3, 0,13,30.00,40.00,Saturday
80,100.0
81,24.241978300642008
2,3, 1, 3, 0,13,40.00,50.00,Saturday
80,100.0
81,24.242747528281599
2,3, 1, 3, 0,13,50.00,60.00,Saturday
80,100.0
81,24.246583782394464
2,3, 1, 3, 0,14, 0.00,10.00,Saturday
80,100.0
81,24.253590635082074
2,3, 1, 3, 0,14,10.00,20.00,Saturday
80,100.0
81,24.26388011394734
2,3, 1, 3, 0,14,20.00,30.00,Saturday
80,100.0
81,24.277107686417844
2,3, 1, 3, 0,14,30.00,40.00,Saturday
80,100.0
81,24.293283633843484
2,3, 1, 3, 0,14,40.00,50.00,Saturday
80,100.0
81,24.312201943725034
2,3, 1, 3, 0,14,50.00,60.00,Saturday
80,100.0
81,24.333922218188016
2,3, 1, 3, 0,15, 0.00,10.00,Saturday
80,100.0
81,24.35822539574128
2,3, 1, 3, 0,15,10.00,20.00,Saturday
80,100.0
81,24.38513045163828
2,3, 1, 3, 0,15,20.00,30.00,Saturday
80,100.0
81,24.414654816190827
2,3, 1, 3, 0,15,30.00,40.00,Saturday
80,100.0
81,24.446759627991275
2,3, 1, 3, 0,15,40.00,50.00,Saturday
80,100.0
81,24.481084460090533
2,3, 1, 3, 0,15,50.00,60.00,Saturday
80,100.0
81,24.517606804711187
2,3, 1, 3, 0,16, 0.00,10.00,Saturday
80,100.0
81,24.556191761912314
2,3, 1, 3, 0,16,10.00,20.00,Saturday
80,100.0
81,24.596893291023535
2,3, 1, 3, 0,16,20.00,30.00,Saturday
80,100.0
81,24.639571410803556
2,3, 1, 3, 0,16,30.00,40.00,Saturday
80,100.0
81,24.684245871042675
2,3, 1, 3, 0,16,40.00,50.00,Saturday
80,100.0
81,24.730779745253707
2,3, 1, 3, 0,16,50.00,60.00,Saturday
80,100.0
81,24.779192458014646
2,3, 1, 3, 0,17, 0.00,10.00,Saturday
80,100.0
81,24.829352600188657
2,3, 1, 3, 0,17,10.00,20.00,Saturday
80,100.0
81,24.88124260104059
2,3, 1, 3, 0,17,20.00,30.00,Saturday
80,100.0
81,24.93472977693149
2,3, 1, 3, 0,17,30.00,40.00,Saturday
80,100.0
81,24.98976896033803
2,3, 1, 3, 0,17,40.00,50.00,Saturday
80,100.0
81,25.046216842891675
2,3, 1, 3, 0,17,50.00,60.00,Saturday
80,100.0
81,25.104000218284367
2,3, 1, 3, 0,18, 0.00,10.00,Saturday
80,100.0
81,25.16296868234564
2,3, 1, 3, 0,18,10.00,20.00,Saturday
80,100.0
81,25.223019567459827
2,3, 1, 3, 0,18,20.00,30.00,Saturday
80,100.0
81,25.283995451088069
2,3, 1, 3, 0,18,30.00,40.00,Saturday
80,100.0
81,25.345745197584298
2,3, 1, 3, 0,18,40.00,50.00,Saturday
80,100.0
81,25.40810095185904
2,3, 1, 3, 0,18,50.00,60.00,Saturday
80,100.0
81,25.470865407916553
2,3, 1, 3, 0,19, 0.00,10.00,Saturday
80,100.0
81,25.533844297062158
2,3, 1, 3, 0,19,10.00,20.00,Saturday
80,100.0
81,25.596789256654075
2,3, 1, 3, 0,19,20.00,30.00,Saturday
80,100.0
81,25.659502735820025
2,3, 1, 3, 0,19,30.00,40.00,Saturday
80,100.0
81,25.721704883980047
2,3, 1, 3, 0,19,40.00,50.00,Saturday
80,100.0
81,25.783214399503846
2,3, 1, 3, 0,19,50.00,60.00,Saturday
80,100.0
81,25.843737774977766
2,3, 1, 3, 0,20, 0.00,10.00,Saturday
80,100.0
81,25.90311445838309
2,3, 1, 3, 0,20,10.00,20.00,Saturday
80,100.0
81,25.961043835260936
2,3, 1, 3, 0,20,20.00,30.00,Saturday
80,100.0
81,26.017395450942666
2,3, 1, 3, 0,20,30.00,40.00,Saturday
80,100.0
81,26.071874649181337
2,3, 1, 3, 0,20,40.00,50.00,Saturday
80,100.0
81,26.12439250988636
2,3, 1, 3, 0,20,50.00,60.00,Saturday
80,100.0
81,26.174671328516625
2,3, 1, 3, 0,21, 0.00,10.00,Saturday
80,100.0
81,26.222670732895076
2,3, 1, 3, 0,21,10.00,20.00,Saturday
80,100.0
81,26.26814234576593
2,3, 1, 3, 0,21,20.00,30.00,Saturday
80,100.0
81,26.31108268213637
2,3, 1, 3, 0,21,30.00,40.00,Saturday
80,100.0
81,26.351275050583188
2,3, 1, 3, 0,21,40.00,50.00,Saturday
80,100.0
81,26.388759738845434
2,3, 1, 3, 0,21,50.00,60.00,Saturday
80,100.0
81,26.423352978338625
2,3, 1, 3, 0,22, 0.00,10.00,Saturday
80,100.0
81,26.455137517535147
2,3, 1, 3, 0,22,10.00,20.00,Saturday
80,100.0
81,26.483772484173345
2,3, 1, 3, 0,22,20.00,30.00,Saturday
80,100.0
81,26.50947407434286
2,3, 1, 3, 0,22,30.00,40.00,Saturday
80,100.0
81,26.532299998049845
2,3, 1, 3, 0,22,40.00,50.00,Saturday
80,100.0
81,26.55242966387931
2,3, 1, 3, 0,22,50.00,60.00,Saturday
80,100.0
81,26.56976590170771
2,3, 1, 3, 0,23, 0.00,10.00,Saturday
80,100.0
81,26.584447601881654
2,3, 1, 3, 0,23,10.00,20.00,Saturday
80,100.0
81,26.596432674311037
2,3, 1, 3, 0,23,20.00,30.00,Saturday
80,100.0
81,26.60589985524706
2,3, 1, 3, 0,23,30.00,40.00,Saturday
80,100.0
81,26.61269520538937
2,3, 1, 3, 0,23,40.00,50.00,Saturday
80,100.0
81,26.61709998430669
2,3, 1, 3, 0,23,50.00,60.00,Saturday
80,100.0
81,26.619269395640989
2,3, 1, 3, 0,24, 0.00,10.00,Saturday
80,100.0
81,26.619387784169264
2,3, 1, 3, 0,24,10.00,20.00,Saturday
80,100.0
81,26.617438928798035
2,3, 1, 3, 0,24,20.00,30.00,Saturday
80,100.0
81,26.613555402898038
2,3, 1, 3, 0,24,30.00,40.00,Saturday
80,100.0
81,26.607562048209969
2,3, 1, 3, 0,24,40.00,50.00,Saturday
80,100.0
81,26.59964399834416
2,3, 1, 3, 0,24,50.00,60.00,Saturday
80,100.0
81,26.58993657254237
2,4, 1, 4, 0, 1, 0.00,10.00,Sunday
80,100.0
81,26.57862267213353
2,4, 1, 4, 0, 1,10.00,20.00,Sunday
80,100.0
81,26.565721858848776
2,4, 1, 4, 0, 1,20.00,30.00,Sunday
80,100.0
81,26.551355332125838
2,4, 1, 4, 0, 1,30.00,40.00,Sunday