Program Version,EnergyPlus, Version 9.5.0-de239b2e5f, YMD=2021.12.09 19:11
1,5,Environment Title[],Latitude[deg],Longitude[deg],Time Zone[],Elevation[m]
2,8,Day of Simulation[],Month[],Day of Month[],DST Indicator[1=yes 0=no],Hour[],StartMinute[],EndMinute[],DayType
3,5,Cumulative Day of Simulation[],Month[],Day of Month[],DST Indicator[1=yes 0=no],DayType  ! When Daily Report Variables Requested
4,2,Cumulative Days of Simulation[],Month[]  ! When Monthly Report Variables Requested
5,1,Cumulative Days of Simulation[] ! When Run Period Report Variables Requested
6,1,Calendar Year of Simulation[] ! When Annual Report Variables Requested
148,1,THERMAL ZONE: JORGE,Zone Mean Air Temperature [C] !TimeStep
596,1,JORGE,Zone Thermal Comfort Fanger Model PMV [] !TimeStep
597,1,JORGE,Zone Thermal Comfort Fanger Model PPD [%] !TimeStep
End of Data Dictionary
1,RUN PERIOD 1,  18.85, -99.14,  -6.00,1280.00
2,1, 5, 3, 0, 1, 0.00,10.00,Wednesday
148,25.510915863919224
596,-1.3611081574225704
597,43.45081067577391
2,1, 5, 3, 0, 1,10.00,20.00,Wednesday
148,25.546960174590848
596,-1.3647689682453439
597,43.643737154800728
2,1, 5, 3, 0, 1,20.00,30.00,Wednesday
148,25.712413005641193
596,-1.3194316046740993
597,41.272130600122007
2,1, 5, 3, 0, 1,30.00,40.00,Wednesday
148,25.676519291136278
596,-1.3416463066251506
597,42.42924712821653
2,1, 5, 3, 0, 1,40.00,50.00,Wednesday
148,25.462456138701027
596,-1.4191475341550637
597,46.53489509097946
2,1, 5, 3, 0, 1,50.00,60.00,Wednesday
148,25.18624863655177
596,-1.5166004682218582
597,51.80262571584855
2,1, 5, 3, 0, 2, 0.00,10.00,Wednesday
148,24.961313362730288
596,-1.6050195110291739
597,56.61843030968643
2,1, 5, 3, 0, 2,10.00,20.00,Wednesday
148,24.74979795207235
596,-1.685063423945027
597,60.95048318654175
2,1, 5, 3, 0, 2,20.00,30.00,Wednesday
148,24.419725120359389
596,-1.8049966165604284
597,67.27802792395446
2,1, 5, 3, 0, 2,30.00,40.00,Wednesday
148,24.257407139804515
596,-1.873065422015562
597,70.72623126107446
2,1, 5, 3, 0, 2,40.00,50.00,Wednesday
148,24.282319921201265
596,-1.8804586469227052
597,71.09281372281322
2,1, 5, 3, 0, 2,50.00,60.00,Wednesday
148,24.396732621729578
596,-1.8593152621864298
597,70.0400742838318
2,1, 5, 3, 0, 3, 0.00,10.00,Wednesday
148,24.4583941686904
596,-1.8532498554321338
597,69.73563962678995
2,1, 5, 3, 0, 3,10.00,20.00,Wednesday
148,24.75385017590005
596,-1.7772470434299288
597,65.83866802605648
2,1, 5, 3, 0, 3,20.00,30.00,Wednesday
148,25.006972900606049
596,-1.7092522807409719
597,62.246427440088
2,1, 5, 3, 0, 3,30.00,40.00,Wednesday
148,24.883379107485206
596,-1.7588688821658423
597,64.87620397926637
2,1, 5, 3, 0, 3,40.00,50.00,Wednesday
148,24.803982681638268
596,-1.793473364689128
597,66.68245311581433
2,1, 5, 3, 0, 3,50.00,60.00,Wednesday
148,24.752592503525965
596,-1.8240409166731988
597,68.2552563135115
2,1, 5, 3, 0, 4, 0.00,10.00,Wednesday
148,24.661556608928906
596,-1.8643862952024828
597,70.29377956959834
2,1, 5, 3, 0, 4,10.00,20.00,Wednesday
148,24.465680999063076
596,-1.9342247328165768
597,73.7056969468517
2,1, 5, 3, 0, 4,20.00,30.00,Wednesday
148,24.458623120031264
596,-1.9562313975377297
597,74.74634469451745
2,1, 5, 3, 0, 4,30.00,40.00,Wednesday
148,23.963441112207677
596,-2.125404948122739
597,82.09070223208002
2,1, 5, 3, 0, 4,40.00,50.00,Wednesday
148,23.40347855991881
596,-2.3324345712984284
597,89.2373564778472
2,1, 5, 3, 0, 4,50.00,60.00,Wednesday
148,23.278907123227378
596,-2.3942516550680787
597,90.94829891956701
2,1, 5, 3, 0, 5, 0.00,10.00,Wednesday
148,23.19613147707829
596,-2.436809087645744
597,92.01391714166515
2,1, 5, 3, 0, 5,10.00,20.00,Wednesday
148,23.546442520993059
596,-2.343691436350111
597,89.56344432957735
2,1, 5, 3, 0, 5,20.00,30.00,Wednesday
148,23.81940759157803
596,-2.260557960675855
597,87.00193340184089
2,1, 5, 3, 0, 5,30.00,40.00,Wednesday
148,24.047708665554258
596,-2.1991941544475526
597,84.88476465630292
2,1, 5, 3, 0, 5,40.00,50.00,Wednesday
148,23.88820257066756
596,-2.2500259908792019
597,86.65214467265129
2,1, 5, 3, 0, 5,50.00,60.00,Wednesday
148,23.45962250221468
596,-2.401387074554996
597,91.13329895025893
2,1, 5, 3, 0, 6, 0.00,10.00,Wednesday
148,23.128396088894705
596,-2.518766475269043
597,93.8161508733593
2,1, 5, 3, 0, 6,10.00,20.00,Wednesday
148,22.87217942772839
596,-2.6304701781142696
597,95.77590419084004
2,1, 5, 3, 0, 6,20.00,30.00,Wednesday
148,22.875754413209987
596,-2.6430862680466857
597,95.96386322095995
2,1, 5, 3, 0, 6,30.00,40.00,Wednesday
148,22.54468015776442
596,-2.7727088528404368
597,97.54795516317224
2,1, 5, 3, 0, 6,40.00,50.00,Wednesday
148,22.31523191517678
596,-2.8630932021323467
597,98.32701337855926
2,1, 5, 3, 0, 6,50.00,60.00,Wednesday
148,22.197225980653565
596,-2.918192174205646
597,98.69436293609189
2,1, 5, 3, 0, 7, 0.00,10.00,Wednesday
148,22.34451992957492
596,-2.882771451973492
597,98.46675090228553
2,1, 5, 3, 0, 7,10.00,20.00,Wednesday
148,22.63561906843475
596,-2.7943265665507477
597,97.75620574666657
2,1, 5, 3, 0, 7,20.00,30.00,Wednesday
148,22.900365544501566
596,-2.718971399169329
597,96.96427496626294
2,1, 5, 3, 0, 7,30.00,40.00,Wednesday
148,22.184300737834826
596,-2.9607140351402956
597,98.93031223809693
2,1, 5, 3, 0, 7,40.00,50.00,Wednesday
148,21.95275515071324
596,-3.051663554969543
597,99.31836043917575
2,1, 5, 3, 0, 7,50.00,60.00,Wednesday
148,22.787784920070739
596,-2.783435958830439
597,97.65311600343327
2,1, 5, 3, 0, 8, 0.00,10.00,Wednesday
148,23.0177108608945
596,-2.692540231438105
597,96.64033534463185
2,1, 5, 3, 0, 8,10.00,20.00,Wednesday
148,22.55213886346521
596,-2.8450196913843399
597,98.18978675639488
2,1, 5, 3, 0, 8,20.00,30.00,Wednesday
148,22.6855233178808
596,-2.795719257233293
597,97.76912616420987
2,1, 5, 3, 0, 8,30.00,40.00,Wednesday
148,22.946184851473288
596,-2.6990439097853389
597,96.722399370102
2,1, 5, 3, 0, 8,40.00,50.00,Wednesday
148,23.23111478315796
596,-2.588637531276443
597,95.10561604038407
2,1, 5, 3, 0, 8,50.00,60.00,Wednesday
148,23.83370312187637
596,-2.3775824486862224
597,90.50609027729175
2,1, 5, 3, 0, 9, 0.00,10.00,Wednesday
148,24.309018944150645
596,-2.1922079391629989
597,84.63169998499902
2,1, 5, 3, 0, 9,10.00,20.00,Wednesday
148,24.5320478888625
596,-2.1085250762408376
597,81.41468492027278
2,1, 5, 3, 0, 9,20.00,30.00,Wednesday
148,24.796968852686456
596,-2.014829530900977
597,77.42745797193128
2,1, 5, 3, 0, 9,30.00,40.00,Wednesday
148,25.040749703657988
596,-1.9226033010041355
597,73.14916745072127
2,1, 5, 3, 0, 9,40.00,50.00,Wednesday
148,25.22579126722923
596,-1.8390868620045289
597,69.02072121932015
2,1, 5, 3, 0, 9,50.00,60.00,Wednesday
148,25.371220077111948
596,-1.7721774977134975
597,65.57387223510301
2,1, 5, 3, 0,10, 0.00,10.00,Wednesday
148,27.427780789386277
596,0.005104429034373865
597,5.000539356211334
2,1, 5, 3, 0,10,10.00,20.00,Wednesday
148,27.621635929177807
596,0.09371405962254852
597,5.181869891484951
2,1, 5, 3, 0,10,20.00,30.00,Wednesday
148,27.96432029424414
596,0.17947061303906304
597,5.667704082959787
2,1, 5, 3, 0,10,30.00,40.00,Wednesday
148,28.456281127242457
596,0.31314713015374637
597,7.038358741361719
2,1, 5, 3, 0,10,40.00,50.00,Wednesday
148,28.514973898395387
596,0.35351050872982178
597,7.600428032148329
2,1, 5, 3, 0,10,50.00,60.00,Wednesday
148,28.40751782689964
596,0.3407774421755408
597,7.415648328069025
2,1, 5, 3, 0,11, 0.00,10.00,Wednesday
148,28.183196141073844
596,0.2877587662839093
597,6.7201836325130419
2,1, 5, 3, 0,11,10.00,20.00,Wednesday
148,28.56803327018125
596,0.38006030123266318
597,8.007913716320559
2,1, 5, 3, 0,11,20.00,30.00,Wednesday
148,29.00345888288563
596,0.5026597822473297
597,10.281211162112286
2,1, 5, 3, 0,11,30.00,40.00,Wednesday
148,29.097990386885486
596,0.5477353897948242
597,11.279955402471544
2,1, 5, 3, 0,11,40.00,50.00,Wednesday
148,29.094642331971099
596,0.5593801034949217
597,11.552272973486936
2,1, 5, 3, 0,11,50.00,60.00,Wednesday
148,29.25697403422125
596,0.6110474002761275
597,12.831489692338295
2,1, 5, 3, 0,12, 0.00,10.00,Wednesday
148,29.413900681458359
596,0.6656982531648251
597,14.310629226933159
2,1, 5, 3, 0,12,10.00,20.00,Wednesday
148,29.52256792541928
596,0.6961184629202589
597,15.190018639747862
2,1, 5, 3, 0,12,20.00,30.00,Wednesday
148,29.79301580725962
596,0.7805696784531176
597,17.840262780792544
2,1, 5, 3, 0,12,30.00,40.00,Wednesday
148,29.93463615715939
596,0.823914619020059
597,19.31864774662145
2,1, 5, 3, 0,12,40.00,50.00,Wednesday
148,30.18449414343651
596,0.8963261435912705
597,21.96371664321468
2,1, 5, 3, 0,12,50.00,60.00,Wednesday
148,30.43044427757789
596,0.9687435508046163
597,24.82225793810983
2,1, 5, 3, 0,13, 0.00,10.00,Wednesday
148,30.761391626420648
596,1.0694639357126497
597,29.13404680108971
2,1, 5, 3, 0,13,10.00,20.00,Wednesday
148,30.835855324464324
596,1.107750857929507
597,30.86925308549459
2,1, 5, 3, 0,13,20.00,30.00,Wednesday
148,30.849692356144943
596,1.1374672622925933
597,32.25018654628687
2,1, 5, 3, 0,13,30.00,40.00,Wednesday
148,30.918473811734669
596,1.1415481301410476
597,32.442079078309948
2,1, 5, 3, 0,13,40.00,50.00,Wednesday
148,31.04315195210093
596,1.1567025708746737
597,33.15932130814497
2,1, 5, 3, 0,13,50.00,60.00,Wednesday
148,31.151066044516698
596,1.1941419257909459
597,34.96166283069887
2,1, 5, 3, 0,14, 0.00,10.00,Wednesday
148,31.206510831221278
596,1.2461852830229457
597,37.53431298652902
2,1, 5, 3, 0,14,10.00,20.00,Wednesday
148,31.418299667805959
596,1.331119487445856
597,41.87969178887847
2,1, 5, 3, 0,14,20.00,30.00,Wednesday
148,31.533837092800224
596,1.3762800821832644
597,44.25188419873705
2,1, 5, 3, 0,14,30.00,40.00,Wednesday
148,31.563787545482179
596,1.3995049687571233
597,45.485424511434938
2,1, 5, 3, 0,14,40.00,50.00,Wednesday
148,32.02185868006709
596,1.5067590817906416
597,51.26742848962263
2,1, 5, 3, 0,14,50.00,60.00,Wednesday
148,32.53350303654061
596,1.6284519272135152
597,57.89176919115387
2,1, 5, 3, 0,15, 0.00,10.00,Wednesday
148,31.935877389813194
596,1.4826925542624919
597,49.96090386798023
2,1, 5, 3, 0,15,10.00,20.00,Wednesday
148,31.88525664946328
596,1.4983342559194127
597,50.80965761555404
2,1, 5, 3, 0,15,20.00,30.00,Wednesday
148,32.23126407458145
596,1.5977420109401515
597,56.222418929922387
2,1, 5, 3, 0,15,30.00,40.00,Wednesday
148,32.33857019947941
596,1.6516695462966469
597,59.14982759694363
2,1, 5, 3, 0,15,40.00,50.00,Wednesday
148,32.438001879721678
596,1.6704832220560169
597,60.16576326332353
2,1, 5, 3, 0,15,50.00,60.00,Wednesday
148,32.571252002782589
596,1.7188609340495498
597,62.758909843345
2,1, 5, 3, 0,16, 0.00,10.00,Wednesday
148,32.67207368995986
596,1.7687030505341686
597,65.39208159851192
2,1, 5, 3, 0,16,10.00,20.00,Wednesday
148,32.79350858144213
596,1.7992312784243683
597,66.98043877041795
2,1, 5, 3, 0,16,20.00,30.00,Wednesday
148,32.74496469282407
596,1.7763215448563806
597,65.79036744595024
2,1, 5, 3, 0,16,30.00,40.00,Wednesday
148,32.73984170697396
596,1.7925889523080337
597,66.63661480374729
2,1, 5, 3, 0,16,40.00,50.00,Wednesday
148,32.98853695832758
596,1.8176362016254324
597,67.92762214503665
2,1, 5, 3, 0,16,50.00,60.00,Wednesday
148,32.69705034992416
596,1.73707403355443
597,63.72627179309692
2,1, 5, 3, 0,17, 0.00,10.00,Wednesday
148,32.55158538520775
596,1.7095562850439095
597,62.26266294694182
2,1, 5, 3, 0,17,10.00,20.00,Wednesday
148,32.16131413496437
596,1.6059623829728487
597,56.66972144870113
2,1, 5, 3, 0,17,20.00,30.00,Wednesday
148,31.44523460217991
596,1.4044591836383663
597,45.749613106348999
2,1, 5, 3, 0,17,30.00,40.00,Wednesday
148,31.46918459468981
596,1.3962616051703392
597,45.312662612763258
2,1, 5, 3, 0,17,40.00,50.00,Wednesday
148,31.396655556076305
596,1.3786622069969832
597,44.3780125398452
2,1, 5, 3, 0,17,50.00,60.00,Wednesday
148,31.196522151509499
596,1.340452559305438
597,42.36681829169234
2,1, 5, 3, 0,18, 0.00,10.00,Wednesday
148,30.839681211878138
596,1.2690872507383844
597,38.6892640025003
2,1, 5, 3, 0,18,10.00,20.00,Wednesday
148,30.74721727368723
596,1.2601886145327246
597,38.23893349608264
2,1, 5, 3, 0,18,20.00,30.00,Wednesday
148,30.858008279311119
596,1.2994884025115905
597,40.24210588278879
2,1, 5, 3, 0,18,30.00,40.00,Wednesday
148,30.861260287734525
596,1.3073331436702119
597,40.64623990534164
2,1, 5, 3, 0,18,40.00,50.00,Wednesday
148,31.007164970538587
596,1.3432534627166893
597,42.51333912964942
2,1, 5, 3, 0,18,50.00,60.00,Wednesday
148,31.305433766314594
596,1.417267596904765
597,46.43422639220362
2,1, 5, 3, 0,19, 0.00,10.00,Wednesday
148,29.66597195672758
596,0.3790752836132321
597,7.992258845481757
2,1, 5, 3, 0,19,10.00,20.00,Wednesday
148,29.455629550187294
596,0.28824165183908337
597,6.725981193690913
2,1, 5, 3, 0,19,20.00,30.00,Wednesday
148,29.354206749619224
596,0.23891713433653478
597,6.184545285887708
2,1, 5, 3, 0,19,30.00,40.00,Wednesday
148,29.071814558060426
596,0.16614386257208345
597,5.572109620130391
2,1, 5, 3, 0,19,40.00,50.00,Wednesday
148,28.732732073768493
596,0.07286246466632887
597,5.109923820161939
2,1, 5, 3, 0,19,50.00,60.00,Wednesday
148,28.598176332658036
596,0.01184673383019937
597,5.002905232110251
2,1, 5, 3, 0,20, 0.00,10.00,Wednesday
148,28.589837554563919
596,-0.006189977522119403
597,5.000793158032948
2,1, 5, 3, 0,20,10.00,20.00,Wednesday
148,28.51807219332566
596,-0.03550667518693024
597,5.026099093957754
2,1, 5, 3, 0,20,20.00,30.00,Wednesday
148,28.2143045278767
596,-0.1196990846112296
597,5.296783455510337
2,1, 5, 3, 0,20,30.00,40.00,Wednesday
148,27.981261518241455
596,-0.18520612562526798
597,5.711127119140627
2,1, 5, 3, 0,20,40.00,50.00,Wednesday
148,27.5572974243369
596,-0.29922184907936197
597,6.860468355020998
2,1, 5, 3, 0,20,50.00,60.00,Wednesday
148,27.40692502003561
596,-0.363753633861272
597,7.754080600509155
2,1, 5, 3, 0,21, 0.00,10.00,Wednesday
148,27.163370336294017
596,-0.44755803806883268
597,9.17955743491261
2,1, 5, 3, 0,21,10.00,20.00,Wednesday
148,27.073450669485703
596,-0.5009537639416953
597,10.24513719614447
2,1, 5, 3, 0,21,20.00,30.00,Wednesday
148,26.837793998628265
596,-0.5913460948660506
597,12.330046151817755
2,1, 5, 3, 0,21,30.00,40.00,Wednesday
148,26.463182967688917
596,-0.7205166689190418
597,15.924209584343018
2,1, 5, 3, 0,21,40.00,50.00,Wednesday
148,26.68125390215696
596,-0.669414490646192
597,14.415911480135776
2,1, 5, 3, 0,21,50.00,60.00,Wednesday
148,26.491418356368805
596,-0.7456799018527807
597,16.708264318488973
2,1, 5, 3, 0,22, 0.00,10.00,Wednesday
148,26.55428338239035
596,-0.739840944105133
597,16.523906698692558
2,1, 5, 3, 0,22,10.00,20.00,Wednesday
148,26.476013627853264
596,-0.7690527287335723
597,17.460849018406934
2,1, 5, 3, 0,22,20.00,30.00,Wednesday
148,26.078535705289455
596,-0.9238529220983613
597,23.02561217860189
2,1, 5, 3, 0,22,30.00,40.00,Wednesday
148,25.992090249013
596,-0.9752654771800343
597,25.089863425491659
2,1, 5, 3, 0,22,40.00,50.00,Wednesday
148,26.141721765155
596,-0.9422829951198597
597,23.75359088444354
2,1, 5, 3, 0,22,50.00,60.00,Wednesday
148,26.07549676047235
596,-0.9729043608444158
597,24.992792363902326
2,1, 5, 3, 0,23, 0.00,10.00,Wednesday
148,26.314636214564794
596,-0.9294454599606563
597,23.24508274058499
2,1, 5, 3, 0,23,10.00,20.00,Wednesday
148,26.287469156501467
596,-0.9443832411280232
597,23.837406814100676
2,1, 5, 3, 0,23,20.00,30.00,Wednesday
148,26.228877229767059
596,-0.9723730747141212
597,24.970979713373028
2,1, 5, 3, 0,23,30.00,40.00,Wednesday
148,26.37861310395853
596,-0.9525104781762962
597,24.163388179365727
2,1, 5, 3, 0,23,40.00,50.00,Wednesday
148,26.395848652666588
596,-0.9622915134600188
597,24.55914789427699
2,1, 5, 3, 0,23,50.00,60.00,Wednesday
148,26.340440206954964
596,-0.9913248175215432
597,25.755804501739449
2,1, 5, 3, 0,24, 0.00,10.00,Wednesday
148,26.417868801210778
596,-0.9834140062439499
597,25.42652330671916
2,1, 5, 3, 0,24,10.00,20.00,Wednesday
148,26.473830289921698
596,-0.9829878071773763
597,25.40885129065441
2,1, 5, 3, 0,24,20.00,30.00,Wednesday
148,26.317586469079644
596,-1.0368798777087316
597,27.698019565150007
2,1, 5, 3, 0,24,30.00,40.00,Wednesday
148,26.270008779738875
596,-1.0616590408256693
597,28.786602180697629
2,1, 5, 3, 0,24,40.00,50.00,Wednesday
148,26.14307982679335
596,-1.1137689974704189
597,31.14655678245171
2,1, 5, 3, 0,24,50.00,60.00,Wednesday
148,26.132500244346987
596,-1.1290044301942635
597,31.853958771906919
2,2, 5, 4, 0, 1, 0.00,10.00,Thursday
148,26.408379581877669
596,-1.0622190520335942
597,28.811459633527364
2,2, 5, 4, 0, 1,10.00,20.00,Thursday
148,26.529808382443514
596,-1.037968399220729
597,27.745371639365034
2,2, 5, 4, 0, 1,20.00,30.00,Thursday
148,26.275540096240677
596,-1.1185545896993066
597,31.36793114205534
2,2, 5, 4, 0, 1,30.00,40.00,Thursday
148,25.97040362067872
596,-1.2197794807577196
597,36.21964108027247
2,2, 5, 4, 0, 1,40.00,50.00,Thursday
148,25.96803429451113
596,-1.232496352303323
597,36.850440984735588
2,2, 5, 4, 0, 1,50.00,60.00,Thursday
148,26.078044973324283
596,-1.2123382022284522
597,35.85259565374018
2,2, 5, 4, 0, 2, 0.00,10.00,Thursday
148,26.275508459183617
596,-1.1668401411643746
597,33.64313945287708
2,2, 5, 4, 0, 2,10.00,20.00,Thursday
148,26.21475401028857
596,-1.1939698361937628
597,34.95328250341727
2,2, 5, 4, 0, 2,20.00,30.00,Thursday
148,26.20500578370832
596,-1.2042590659225277
597,35.45585140610159
2,2, 5, 4, 0, 2,30.00,40.00,Thursday
148,26.09103894972963
596,-1.2474274443731109
597,37.596612600987558
2,2, 5, 4, 0, 2,40.00,50.00,Thursday
148,25.952303535669743
596,-1.2979989177999994
597,40.1655273084778
2,2, 5, 4, 0, 2,50.00,60.00,Thursday
148,25.883010271901047
596,-1.3315486982401166
597,41.9020559807623
2,2, 5, 4, 0, 3, 0.00,10.00,Thursday
148,25.976476971002357
596,-1.3188625240828538
597,41.24262061545978
2,2, 5, 4, 0, 3,10.00,20.00,Thursday
148,25.757134751189196
596,-1.396360035138889
597,45.31790331947497
2,2, 5, 4, 0, 3,20.00,30.00,Thursday
148,25.761943842339087
596,-1.4112819605189202
597,46.11401352440938
2,2, 5, 4, 0, 3,30.00,40.00,Thursday
148,25.41513095173665
596,-1.5240408573301719
597,52.20752590028189
2,2, 5, 4, 0, 3,40.00,50.00,Thursday
148,25.23019944645514
596,-1.591726315878378
597,55.8949229252215
2,2, 5, 4, 0, 3,50.00,60.00,Thursday
148,25.351968888178598
596,-1.5744978555782028
597,54.95646593838327
2,2, 5, 4, 0, 4, 0.00,10.00,Thursday
148,25.30923949103597
596,-1.6014485808925483
597,56.424141511902188
2,2, 5, 4, 0, 4,10.00,20.00,Thursday
148,25.159801974890308
596,-1.6559361122936634
597,59.38052401298296
2,2, 5, 4, 0, 4,20.00,30.00,Thursday
148,25.00609440023055
596,-1.7166378710769697
597,62.64046710935544
2,2, 5, 4, 0, 4,30.00,40.00,Thursday
148,24.842402288979288
596,-1.7804725155716717
597,66.0068575382823
2,2, 5, 4, 0, 4,40.00,50.00,Thursday
148,24.766725614137287
596,-1.816654928076205
597,67.87733286766937
2,2, 5, 4, 0, 4,50.00,60.00,Thursday
148,24.708084532101155
596,-1.8401479713460503
597,69.07447630673355
2,2, 5, 4, 0, 5, 0.00,10.00,Thursday
148,24.627297117849407
596,-1.88338542971267
597,71.23746885978801
2,2, 5, 4, 0, 5,10.00,20.00,Thursday
148,24.493936163062377
596,-1.940276858825849
597,73.99363535569414
2,2, 5, 4, 0, 5,20.00,30.00,Thursday
148,24.229794412639376
596,-2.030336219851495
597,78.11377000544695
2,2, 5, 4, 0, 5,30.00,40.00,Thursday
148,24.161004001005879
596,-2.065397155920983
597,79.62764098445206
2,2, 5, 4, 0, 5,40.00,50.00,Thursday
148,24.165597472564785
596,-2.082498893854617
597,80.3463975216265
2,2, 5, 4, 0, 5,50.00,60.00,Thursday
148,24.08470779638003
596,-2.124481276352714
597,82.05405793607345
2,2, 5, 4, 0, 6, 0.00,10.00,Thursday
148,24.263924071947998
596,-2.078545036875919
597,80.18139338129233
2,2, 5, 4, 0, 6,10.00,20.00,Thursday
148,23.60108638164856
596,-2.298738193983623
597,88.22238377954148
2,2, 5, 4, 0, 6,20.00,30.00,Thursday
148,23.338665541539478
596,-2.400814665852226
597,91.11855274457115
2,2, 5, 4, 0, 6,30.00,40.00,Thursday
148,22.991268258150158
596,-2.5307149831297974
597,94.05230546881205
2,2, 5, 4, 0, 6,40.00,50.00,Thursday
148,22.776173084825908
596,-2.620829628790236
597,95.62790879799398
2,2, 5, 4, 0, 6,50.00,60.00,Thursday
148,22.955847518108958
596,-2.571933524180563
597,94.8171267244757
2,2, 5, 4, 0, 7, 0.00,10.00,Thursday
148,23.386782893354807
596,-2.444600593335065
597,92.19925503390079
2,2, 5, 4, 0, 7,10.00,20.00,Thursday
148,23.62465465307033
596,-2.371480777141447
597,90.34069907813368
2,2, 5, 4, 0, 7,20.00,30.00,Thursday
148,23.326749500801879
596,-2.4680375770292697
597,92.73880542892954
2,2, 5, 4, 0, 7,30.00,40.00,Thursday
148,23.605588066883663
596,-2.3982036789825988
597,91.05108008660781
2,2, 5, 4, 0, 7,40.00,50.00,Thursday
148,23.84692682679273
596,-2.320575509153073
597,88.88679574053183
2,2, 5, 4, 0, 7,50.00,60.00,Thursday
148,23.989091838476396
596,-2.2768747456559814
597,87.53265033272244
2,2, 5, 4, 0, 8, 0.00,10.00,Thursday
148,24.004162425962929
596,-2.270435132064038
597,87.32482452131275
2,2, 5, 4, 0, 8,10.00,20.00,Thursday
148,23.833930002516028
596,-2.3170620385341067
597,88.78154951211542
2,2, 5, 4, 0, 8,20.00,30.00,Thursday
148,23.677993133451197
596,-2.3614804690145028
597,90.06553474992409
2,2, 5, 4, 0, 8,30.00,40.00,Thursday
148,23.783236151294497
596,-2.3169113428302445
597,88.77702123835596
2,2, 5, 4, 0, 8,40.00,50.00,Thursday
148,24.014742665144789
596,-2.2271742228680515
597,85.87377043421876
2,2, 5, 4, 0, 8,50.00,60.00,Thursday
148,24.434665156485595
596,-2.0869985420197265
597,80.53331570726945
2,2, 5, 4, 0, 9, 0.00,10.00,Thursday
148,24.803305005522046
596,-1.960817120921409
597,74.96095561230936
2,2, 5, 4, 0, 9,10.00,20.00,Thursday
148,25.029297810012247
596,-1.8928827303613834
597,71.7050181711139
2,2, 5, 4, 0, 9,20.00,30.00,Thursday
148,25.259353392748488
596,-1.7972658966645628
597,66.87881229688475
2,2, 5, 4, 0, 9,30.00,40.00,Thursday
148,25.496706992474118
596,-1.7053233456568542
597,62.036479226827058
2,2, 5, 4, 0, 9,40.00,50.00,Thursday
148,25.6931265297881
596,-1.6214135748050609
597,57.509625321159337
2,2, 5, 4, 0, 9,50.00,60.00,Thursday
148,25.79658744675579
596,-1.5861940906021499
597,55.593649561268119
2,2, 5, 4, 0,10, 0.00,10.00,Thursday
148,27.572121392676516
596,0.04051209410416875
597,5.033976779645812
2,2, 5, 4, 0,10,10.00,20.00,Thursday
148,27.63358454162177
596,0.08694378324526062
597,5.156532578159158
2,2, 5, 4, 0,10,20.00,30.00,Thursday
148,27.897728463744764
596,0.16154192427231216
597,5.540819893752428
2,2, 5, 4, 0,10,30.00,40.00,Thursday
148,28.149130989371387
596,0.22183939439903672
597,6.020917156721239
2,2, 5, 4, 0,10,40.00,50.00,Thursday
148,28.287809013605025
596,0.2706928969276888
597,6.521607046038298
2,2, 5, 4, 0,10,50.00,60.00,Thursday
148,28.523204341617978
596,0.3419019650862388
597,7.431689731369175
2,2, 5, 4, 0,11, 0.00,10.00,Thursday
148,28.696102417121915
596,0.399107631742615
597,8.318781660105714
2,2, 5, 4, 0,11,10.00,20.00,Thursday
148,28.760246323776327
596,0.4287050579539444
597,8.832643222247654
2,2, 5, 4, 0,11,20.00,30.00,Thursday
148,28.906197896813283
596,0.47457010955554215
597,9.70325398901059
2,2, 5, 4, 0,11,30.00,40.00,Thursday
148,29.056220064876635
596,0.5274089900033067
597,10.818693077683819
2,2, 5, 4, 0,11,40.00,50.00,Thursday
148,29.139317700841639
596,0.5509044091197333
597,11.353482329580075
2,2, 5, 4, 0,11,50.00,60.00,Thursday
148,29.386550220896078
596,0.6285748439396376
597,13.291762913582844
2,2, 5, 4, 0,12, 0.00,10.00,Thursday
148,29.562719180896644
596,0.6923462580478856
597,15.078798257971286
2,2, 5, 4, 0,12,10.00,20.00,Thursday
148,29.872265722515495
596,0.7755648219744391
597,17.674688885645027
2,2, 5, 4, 0,12,20.00,30.00,Thursday
148,30.1023908687987
596,0.8547278402833712
597,20.417645502618
2,2, 5, 4, 0,12,30.00,40.00,Thursday
148,30.253130324981258
596,0.8978356915257728
597,22.021154930334249
2,2, 5, 4, 0,12,40.00,50.00,Thursday
148,30.372524688408818
596,0.9443642670928818
597,23.836648822880606
2,2, 5, 4, 0,12,50.00,60.00,Thursday
148,30.41243590743352
596,0.9655537726673332
597,24.691977942952947
2,2, 5, 4, 0,13, 0.00,10.00,Thursday
148,30.521297117545865
596,0.9993633892115525
597,26.09285270708989
2,2, 5, 4, 0,13,10.00,20.00,Thursday
148,30.829068764456684
596,1.1060346644085988
597,30.79039745748352
2,2, 5, 4, 0,13,20.00,30.00,Thursday
148,31.02814582692353
596,1.1618763533697656
597,33.40584347868534
2,2, 5, 4, 0,13,30.00,40.00,Thursday
148,31.12768391480975
596,1.197977924022052
597,35.14869010827681
2,2, 5, 4, 0,13,40.00,50.00,Thursday
148,31.236578815560216
596,1.2289153301670153
597,36.67236486585766
2,2, 5, 4, 0,13,50.00,60.00,Thursday
148,31.396959762072848
596,1.276677225419842
597,39.07490219791533
2,2, 5, 4, 0,14, 0.00,10.00,Thursday
148,31.53644367981797
596,1.3290369416690376
597,41.77123252084134
2,2, 5, 4, 0,14,10.00,20.00,Thursday
148,31.676259898596507
596,1.3609764112420134
597,43.4438719986682
2,2, 5, 4, 0,14,20.00,30.00,Thursday
148,31.701703553880049
596,1.3702102833245807
597,43.93092809725731
2,2, 5, 4, 0,14,30.00,40.00,Thursday
148,31.690289749213965
596,1.3788471809221253
597,44.38781040114401
2,2, 5, 4, 0,14,40.00,50.00,Thursday
148,31.780104120442365
596,1.3884733095411333
597,44.89845437503788
2,2, 5, 4, 0,14,50.00,60.00,Thursday
148,31.9281349076504
596,1.4656701726876627
597,49.03928398197637
2,2, 5, 4, 0,15, 0.00,10.00,Thursday
148,32.186475173555169
596,1.5371934904086216
597,52.92373099947465
2,2, 5, 4, 0,15,10.00,20.00,Thursday
148,32.06350014383705
596,1.5176803891966875
597,51.86138067516579
2,2, 5, 4, 0,15,20.00,30.00,Thursday
148,32.09346521424879
596,1.5105956121896405
597,51.47601376929458
2,2, 5, 4, 0,15,30.00,40.00,Thursday
148,32.073165925842108
596,1.4985183801896323
597,50.81965790511744
2,2, 5, 4, 0,15,40.00,50.00,Thursday
148,32.09476241106405
596,1.5259282481654837
597,52.31026855767614
2,2, 5, 4, 0,15,50.00,60.00,Thursday
148,32.16010986928843
596,1.5537146145769648
597,53.82388603417641
2,2, 5, 4, 0,16, 0.00,10.00,Thursday
148,32.510089745792857
596,1.650880630678711
597,59.1071522007911
2,2, 5, 4, 0,16,10.00,20.00,Thursday
148,32.79389781201583
596,1.7424874126025914
597,64.0127049288455
2,2, 5, 4, 0,16,20.00,30.00,Thursday
148,32.861795228570908
596,1.7701455229809474
597,65.46758527307203
2,2, 5, 4, 0,16,30.00,40.00,Thursday
148,32.959772671966167
596,1.793832885107444
597,66.70108161220043
2,2, 5, 4, 0,16,40.00,50.00,Thursday
148,32.94732160948819
596,1.778303848439644
597,65.89379890428592
2,2, 5, 4, 0,16,50.00,60.00,Thursday
148,32.76577392150864
596,1.727462817811757
597,63.21647070274122
2,2, 5, 4, 0,17, 0.00,10.00,Thursday
148,32.830639252410978
596,1.7682351810044384
597,65.36758258744089
2,2, 5, 4, 0,17,10.00,20.00,Thursday
148,33.12699124219295
596,1.8369320392260862
597,68.9114651137686
2,2, 5, 4, 0,17,20.00,30.00,Thursday
148,33.046281070102349
596,1.821879131361697
597,68.14478713698172
2,2, 5, 4, 0,17,30.00,40.00,Thursday
148,33.02147424494919
596,1.8241648185274282
597,68.26158416006533
2,2, 5, 4, 0,17,40.00,50.00,Thursday
148,32.87861209504076
596,1.7890562346075072
597,66.4533393876323
2,2, 5, 4, 0,17,50.00,60.00,Thursday
148,32.77601187529865
596,1.7468576272400325
597,64.24355784646892
2,2, 5, 4, 0,18, 0.00,10.00,Thursday
148,32.69054898969851
596,1.7267482283887715
597,63.17850518019592
2,2, 5, 4, 0,18,10.00,20.00,Thursday
148,32.69243756412786
596,1.7306778746586223
597,63.387179001980189
2,2, 5, 4, 0,18,20.00,30.00,Thursday
148,32.75242252788975
596,1.756507328516346
597,64.75203645007344
2,2, 5, 4, 0,18,30.00,40.00,Thursday
148,32.832529776025378
596,1.7832505505315684
597,66.15153492142426
2,2, 5, 4, 0,18,40.00,50.00,Thursday
148,32.923870548405627
596,1.8098220704180972
597,67.52648932955143
2,2, 5, 4, 0,18,50.00,60.00,Thursday
148,32.817882141815989
596,1.7765012545502719
597,65.79974769392533
2,2, 5, 4, 0,19, 0.00,10.00,Thursday
148,31.442255502504609
596,0.9012388003767213
597,22.15098312158257
2,2, 5, 4, 0,19,10.00,20.00,Thursday
148,30.99618148237199
596,0.7669773605216937
597,17.393079435711245
2,2, 5, 4, 0,19,20.00,30.00,Thursday
148,30.91668281764251
596,0.7401703289032199
597,16.53426767582262
2,2, 5, 4, 0,19,30.00,40.00,Thursday
148,30.6476196288851
596,0.6607936888423199
597,14.1725968827012
2,2, 5, 4, 0,19,40.00,50.00,Thursday
148,30.606755750055215
596,0.6361268855183475
597,13.494189665140312
2,2, 5, 4, 0,19,50.00,60.00,Thursday
148,30.510693665802383
596,0.5867386737826876
597,12.21520709935912
2,2, 5, 4, 0,20, 0.00,10.00,Thursday
148,30.349637845013846
596,0.5331950453195745
597,10.948172595722156
2,2, 5, 4, 0,20,10.00,20.00,Thursday
148,30.1116923852
596,0.461346867738636
597,9.442962472486812
2,2, 5, 4, 0,20,20.00,30.00,Thursday
148,29.889655700543714
596,0.39373440088090447
597,8.229516083489046
2,2, 5, 4, 0,20,30.00,40.00,Thursday
148,29.734099060366096
596,0.34712553093248257
597,7.506908873168726
2,2, 5, 4, 0,20,40.00,50.00,Thursday
148,29.600373502663709
596,0.3073328792999085
597,6.963086145596378
2,2, 5, 4, 0,20,50.00,60.00,Thursday
148,29.513794659222677
596,0.28189282348954616
597,6.650542618179955
2,2, 5, 4, 0,21, 0.00,10.00,Thursday
148,29.431058680379793
596,0.25279424988096346
597,6.326523995557551
2,2, 5, 4, 0,21,10.00,20.00,Thursday
148,29.346228020413215
596,0.224299481409132
597,6.043734064343468
2,2, 5, 4, 0,21,20.00,30.00,Thursday
148,29.238774660739546
596,0.18497356433346816
597,5.709339698843181
2,2, 5, 4, 0,21,30.00,40.00,Thursday
148,29.195613047556568
596,0.16602533853386318
597,5.57129266832726
2,2, 5, 4, 0,21,40.00,50.00,Thursday
148,29.13252011123264
596,0.1400150680982599
597,5.40617058254206
2,2, 5, 4, 0,21,50.00,60.00,Thursday
148,28.99747583264978
596,0.09522433985909845
597,5.18778147868025
2,2, 5, 4, 0,22, 0.00,10.00,Thursday
148,28.751087808767147
596,0.018204384182966356
597,5.006860239613815
2,2, 5, 4, 0,22,10.00,20.00,Thursday
148,28.651866540888319
596,-0.017765856409398693
597,5.00653370148234
2,2, 5, 4, 0,22,20.00,30.00,Thursday
148,28.48834346324121
596,-0.07531360716299816
597,5.117445947413927
2,2, 5, 4, 0,22,30.00,40.00,Thursday
148,28.486087426563107
596,-0.07732417833921687
597,5.123802014753167
2,2, 5, 4, 0,22,40.00,50.00,Thursday
148,28.469541897616926
596,-0.09944968959312224
597,5.204823388644954
2,2, 5, 4, 0,22,50.00,60.00,Thursday
148,28.544526502434246