Program Version,EnergyPlus, Version 9.5.0-de239b2e5f, YMD=2021.12.09 16:27
1,5,Environment Title[],Latitude[deg],Longitude[deg],Time Zone[],Elevation[m]
2,8,Day of Simulation[],Month[],Day of Month[],DST Indicator[1=yes 0=no],Hour[],StartMinute[],EndMinute[],DayType
3,5,Cumulative Day of Simulation[],Month[],Day of Month[],DST Indicator[1=yes 0=no],DayType  ! When Daily Report Variables Requested
4,2,Cumulative Days of Simulation[],Month[]  ! When Monthly Report Variables Requested
5,1,Cumulative Days of Simulation[] ! When Run Period Report Variables Requested
6,1,Calendar Year of Simulation[] ! When Annual Report Variables Requested
148,1,THERMAL ZONE: JORGE,Zone Mean Air Temperature [C] !TimeStep
596,1,JORGE,Zone Thermal Comfort Fanger Model PMV [] !TimeStep
597,1,JORGE,Zone Thermal Comfort Fanger Model PPD [%] !TimeStep
End of Data Dictionary
1,RUN PERIOD 1,  18.85, -99.14,  -6.00,1280.00
2,1, 5, 3, 0, 1, 0.00,10.00,Wednesday
148,25.510915863919224
596,-32.86507718274876
597,100.0
2,1, 5, 3, 0, 1,10.00,20.00,Wednesday
148,25.546960174590848
596,-32.90037758403452
597,100.0
2,1, 5, 3, 0, 1,20.00,30.00,Wednesday
148,25.712413005641193
596,-32.636983541722688
597,100.0
2,1, 5, 3, 0, 1,30.00,40.00,Wednesday
148,25.676519291136278
596,-32.76925898920869
597,100.0
2,1, 5, 3, 0, 1,40.00,50.00,Wednesday
148,25.462456138701027
596,-33.227954775353328
597,100.0
2,1, 5, 3, 0, 1,50.00,60.00,Wednesday
148,25.18624863655177
596,-33.808194159621297
597,100.0
2,1, 5, 3, 0, 2, 0.00,10.00,Wednesday
148,24.961313362730288
596,-34.32877850585767
597,100.0
2,1, 5, 3, 0, 2,10.00,20.00,Wednesday
148,24.74979795207235
596,-34.802746175652419
597,100.0
2,1, 5, 3, 0, 2,20.00,30.00,Wednesday
148,24.419725120359389
596,-35.51147311291938
597,100.0
2,1, 5, 3, 0, 2,30.00,40.00,Wednesday
148,24.257407139804515
596,-35.90883614854107
597,100.0
2,1, 5, 3, 0, 2,40.00,50.00,Wednesday
148,24.282319921201265
596,-35.94848596809446
597,100.0
2,1, 5, 3, 0, 2,50.00,60.00,Wednesday
148,24.396732621729578
596,-35.822615379671258
597,100.0
2,1, 5, 3, 0, 3, 0.00,10.00,Wednesday
148,24.4583941686904
596,-35.78654802147388
597,100.0
2,1, 5, 3, 0, 3,10.00,20.00,Wednesday
148,24.75385017590005
596,-35.330009661842328
597,100.0
2,1, 5, 3, 0, 3,20.00,30.00,Wednesday
148,25.006972900606049
596,-34.92098838165268
597,100.0
2,1, 5, 3, 0, 3,30.00,40.00,Wednesday
148,24.883379107485206
596,-35.21202981197843
597,100.0
2,1, 5, 3, 0, 3,40.00,50.00,Wednesday
148,24.803982681638268
596,-35.41666827553079
597,100.0
2,1, 5, 3, 0, 3,50.00,60.00,Wednesday
148,24.752592503525965
596,-35.59655693930247
597,100.0
2,1, 5, 3, 0, 4, 0.00,10.00,Wednesday
148,24.661556608928906
596,-35.834655738403117
597,100.0
2,1, 5, 3, 0, 4,10.00,20.00,Wednesday
148,24.465680999063076
596,-36.24911225871487
597,100.0
2,1, 5, 3, 0, 4,20.00,30.00,Wednesday
148,24.458623120031264
596,-36.375073549182577
597,100.0
2,1, 5, 3, 0, 4,30.00,40.00,Wednesday
148,23.963441112207677
596,-37.37354807670703
597,100.0
2,1, 5, 3, 0, 4,40.00,50.00,Wednesday
148,23.40347855991881
596,-38.585511749298387
597,100.0
2,1, 5, 3, 0, 4,50.00,60.00,Wednesday
148,23.278907123227378
596,-38.94136362945127
597,100.0
2,1, 5, 3, 0, 5, 0.00,10.00,Wednesday
148,23.19613147707829
596,-39.19233544983892
597,100.0
2,1, 5, 3, 0, 5,10.00,20.00,Wednesday
148,23.546442520993059
596,-38.63978406304674
597,100.0
2,1, 5, 3, 0, 5,20.00,30.00,Wednesday
148,23.81940759157803
596,-38.148835740695918
597,100.0
2,1, 5, 3, 0, 5,30.00,40.00,Wednesday
148,24.047708665554258
596,-37.78449005647195
597,100.0
2,1, 5, 3, 0, 5,40.00,50.00,Wednesday
148,23.88820257066756
596,-38.08800576780146
597,100.0
2,1, 5, 3, 0, 5,50.00,60.00,Wednesday
148,23.45962250221468
596,-38.98388163633758
597,100.0
2,1, 5, 3, 0, 6, 0.00,10.00,Wednesday
148,23.128396088894705
596,-39.68435092240354
597,100.0
2,1, 5, 3, 0, 6,10.00,20.00,Wednesday
148,22.87217942772839
596,-40.339750397600507
597,100.0
2,1, 5, 3, 0, 6,20.00,30.00,Wednesday
148,22.875754413209987
596,-40.41351552953627
597,100.0
2,1, 5, 3, 0, 6,30.00,40.00,Wednesday
148,22.54468015776442
596,-41.175865784226839
597,100.0
2,1, 5, 3, 0, 6,40.00,50.00,Wednesday
148,22.31523191517678
596,-41.707922893339979
597,100.0
2,1, 5, 3, 0, 6,50.00,60.00,Wednesday
148,22.197225980653565
596,-42.03068926039901
597,100.0
2,1, 5, 3, 0, 7, 0.00,10.00,Wednesday
148,22.34451992957492
596,-41.82060537268379
597,100.0
2,1, 5, 3, 0, 7,10.00,20.00,Wednesday
148,22.63561906843475
596,-41.29790470896471
597,100.0
2,1, 5, 3, 0, 7,20.00,30.00,Wednesday
148,22.900365544501566
596,-40.853691766644178
597,100.0
2,1, 5, 3, 0, 7,30.00,40.00,Wednesday
148,22.184300737834826
596,-42.2772340195026
597,100.0
2,1, 5, 3, 0, 7,40.00,50.00,Wednesday
148,21.95275515071324
596,-42.81353820180705
597,100.0
2,1, 5, 3, 0, 7,50.00,60.00,Wednesday
148,22.787784920070739
596,-41.22718197736322
597,100.0
2,1, 5, 3, 0, 8, 0.00,10.00,Wednesday
148,23.0177108608945
596,-40.6956729505176
597,100.0
2,1, 5, 3, 0, 8,10.00,20.00,Wednesday
148,22.55213886346521
596,-41.59512139984728
597,100.0
2,1, 5, 3, 0, 8,20.00,30.00,Wednesday
148,22.6855233178808
596,-41.30734562989274
597,100.0
2,1, 5, 3, 0, 8,30.00,40.00,Wednesday
148,22.946184851473288
596,-40.73851085623822
597,100.0
2,1, 5, 3, 0, 8,40.00,50.00,Wednesday
148,23.23111478315796
596,-40.088540967762309
597,100.0
2,1, 5, 3, 0, 8,50.00,60.00,Wednesday
148,23.83370312187637
596,-38.83785677694842
597,100.0
2,1, 5, 3, 0, 9, 0.00,10.00,Wednesday
148,24.309018944150645
596,-37.74606593128379
597,100.0
2,1, 5, 3, 0, 9,10.00,20.00,Wednesday
148,24.5320478888625
596,-37.25180867711465
597,100.0
2,1, 5, 3, 0, 9,20.00,30.00,Wednesday
148,24.796968852686456
596,-36.698266767997498
597,100.0
2,1, 5, 3, 0, 9,30.00,40.00,Wednesday
148,25.040749703657988
596,-36.154946583914028
597,100.0
2,1, 5, 3, 0, 9,40.00,50.00,Wednesday
148,25.22579126722923
596,-35.667079953093047
597,100.0
2,1, 5, 3, 0, 9,50.00,60.00,Wednesday
148,25.371220077111948
596,-35.275004668205678
597,100.0
2,1, 5, 3, 0,10, 0.00,10.00,Wednesday
148,27.427780789386277
596,0.005104429034373865
597,5.000539356211334
2,1, 5, 3, 0,10,10.00,20.00,Wednesday
148,27.621635929177807
596,0.09371405962254852
597,5.181869891484951
2,1, 5, 3, 0,10,20.00,30.00,Wednesday
148,27.96432029424414
596,0.17947061303906304
597,5.667704082959787
2,1, 5, 3, 0,10,30.00,40.00,Wednesday
148,28.456281127242457
596,0.31314713015374637
597,7.038358741361719
2,1, 5, 3, 0,10,40.00,50.00,Wednesday
148,28.514973898395387
596,0.35351050872982178
597,7.600428032148329
2,1, 5, 3, 0,10,50.00,60.00,Wednesday
148,28.40751782689964
596,0.3407774421755408
597,7.415648328069025
2,1, 5, 3, 0,11, 0.00,10.00,Wednesday
148,28.183196141073844
596,0.2877587662839093
597,6.7201836325130419
2,1, 5, 3, 0,11,10.00,20.00,Wednesday
148,28.56803327018125
596,0.38006030123266318
597,8.007913716320559
2,1, 5, 3, 0,11,20.00,30.00,Wednesday
148,29.00345888288563
596,0.5026597822473297
597,10.281211162112286
2,1, 5, 3, 0,11,30.00,40.00,Wednesday
148,29.097990386885486
596,0.5477353897948242
597,11.279955402471544
2,1, 5, 3, 0,11,40.00,50.00,Wednesday
148,29.094642331971099
596,0.5593801034949217
597,11.552272973486936
2,1, 5, 3, 0,11,50.00,60.00,Wednesday
148,29.25697403422125
596,0.6110474002761275
597,12.831489692338295
2,1, 5, 3, 0,12, 0.00,10.00,Wednesday
148,29.413900681458359
596,0.6656982531648251
597,14.310629226933159
2,1, 5, 3, 0,12,10.00,20.00,Wednesday
148,29.52256792541928
596,0.6961184629202589
597,15.190018639747862
2,1, 5, 3, 0,12,20.00,30.00,Wednesday
148,29.79301580725962
596,0.7805696784531176
597,17.840262780792544
2,1, 5, 3, 0,12,30.00,40.00,Wednesday
148,29.93463615715939
596,0.823914619020059
597,19.31864774662145
2,1, 5, 3, 0,12,40.00,50.00,Wednesday
148,30.18449414343651
596,0.8963261435912705
597,21.96371664321468
2,1, 5, 3, 0,12,50.00,60.00,Wednesday
148,30.43044427757789
596,0.9687435508046163
597,24.82225793810983
2,1, 5, 3, 0,13, 0.00,10.00,Wednesday
148,30.761391626420648
596,1.0694639357126497
597,29.13404680108971
2,1, 5, 3, 0,13,10.00,20.00,Wednesday
148,30.835855324464324
596,1.107750857929507
597,30.86925308549459
2,1, 5, 3, 0,13,20.00,30.00,Wednesday
148,30.849692356144943
596,1.1374672622925933
597,32.25018654628687
2,1, 5, 3, 0,13,30.00,40.00,Wednesday
148,30.918473811734669
596,1.1415481301410476
597,32.442079078309948
2,1, 5, 3, 0,13,40.00,50.00,Wednesday
148,31.04315195210093
596,1.1567025708746737
597,33.15932130814497
2,1, 5, 3, 0,13,50.00,60.00,Wednesday
148,31.151066044516698
596,1.1941419257909459
597,34.96166283069887
2,1, 5, 3, 0,14, 0.00,10.00,Wednesday
148,31.206510831221278
596,1.2461852830229457
597,37.53431298652902
2,1, 5, 3, 0,14,10.00,20.00,Wednesday
148,31.418299667805959
596,1.331119487445856
597,41.87969178887847
2,1, 5, 3, 0,14,20.00,30.00,Wednesday
148,31.533837092800224
596,1.3762800821832644
597,44.25188419873705
2,1, 5, 3, 0,14,30.00,40.00,Wednesday
148,31.563787545482179
596,1.3995049687571233
597,45.485424511434938
2,1, 5, 3, 0,14,40.00,50.00,Wednesday
148,32.02185868006709
596,1.5067590817906416
597,51.26742848962263
2,1, 5, 3, 0,14,50.00,60.00,Wednesday
148,32.53350303654061
596,1.6284519272135152
597,57.89176919115387
2,1, 5, 3, 0,15, 0.00,10.00,Wednesday
148,31.935877389813194
596,0.5285439560639144
597,10.843976899133097
2,1, 5, 3, 0,15,10.00,20.00,Wednesday
148,31.88525664946328
596,0.547080546694052
597,11.264816136195279
2,1, 5, 3, 0,15,20.00,30.00,Wednesday
148,32.23126407458145
596,0.733838924391371
597,16.33592561743656
2,1, 5, 3, 0,15,30.00,40.00,Wednesday
148,32.33857019947941
596,0.8259962059077669
597,19.39163964510206
2,1, 5, 3, 0,15,40.00,50.00,Wednesday
148,32.438001879721678
596,0.8667595619582389
597,20.857499511339499
2,1, 5, 3, 0,15,50.00,60.00,Wednesday
148,32.571252002782589
596,0.9536340072349276
597,24.208657458894196
2,1, 5, 3, 0,16, 0.00,10.00,Wednesday
148,32.67207368995986
596,1.0391589841510228
597,27.797213252257323
2,1, 5, 3, 0,16,10.00,20.00,Wednesday
148,32.79350858144213
596,1.0918894138793943
597,30.144260311583638
2,1, 5, 3, 0,16,20.00,30.00,Wednesday
148,32.74496469282407
596,1.064237003298517
597,28.901123972212689
2,1, 5, 3, 0,16,30.00,40.00,Wednesday
148,32.73984170697396
596,1.0817228894675913
597,29.684110038086915
2,1, 5, 3, 0,16,40.00,50.00,Wednesday
148,32.98853695832758
596,1.151916260084237
597,32.93200647748415
2,1, 5, 3, 0,16,50.00,60.00,Wednesday
148,32.69705034992416
596,1.0008255373055873
597,26.15442298638422
2,1, 5, 3, 0,17, 0.00,10.00,Wednesday
148,32.55158538520775
596,1.8721175635643886
597,70.67911259186504
2,1, 5, 3, 0,17,10.00,20.00,Wednesday
148,32.16131413496437
596,1.7869607506105243
597,66.34449371106885
2,1, 5, 3, 0,17,20.00,30.00,Wednesday
148,31.44523460217991
596,1.6159676427815575
597,57.21373638461787
2,1, 5, 3, 0,17,30.00,40.00,Wednesday
148,31.46918459468981
596,1.6096539768569405
597,56.870501106024239
2,1, 5, 3, 0,17,40.00,50.00,Wednesday
148,31.396655556076305
596,1.5958612528516215
597,56.12004307992054
2,1, 5, 3, 0,17,50.00,60.00,Wednesday
148,31.196522151509499
596,1.5629227731378206
597,54.325699623331107
2,1, 5, 3, 0,18, 0.00,10.00,Wednesday
148,30.839681211878138
596,1.5062275984593286
597,51.23853851749998
2,1, 5, 3, 0,18,10.00,20.00,Wednesday
148,30.74721727368723
596,1.5026350989487965
597,51.04329912442119
2,1, 5, 3, 0,18,20.00,30.00,Wednesday
148,30.858008279311119
596,1.5383553989786159
597,52.98702268025879
2,1, 5, 3, 0,18,30.00,40.00,Wednesday
148,30.861260287734525
596,1.545814100715901
597,53.39337657327983
2,1, 5, 3, 0,18,40.00,50.00,Wednesday
148,31.007164970538587
596,1.5754630124311058
597,55.009054573349477
2,1, 5, 3, 0,18,50.00,60.00,Wednesday
148,31.305433766314594
596,1.63826261689348
597,58.423876962299868
2,1, 5, 3, 0,19, 0.00,10.00,Wednesday
148,29.66597195672758
596,-22.227319066096827
597,100.0
2,1, 5, 3, 0,19,10.00,20.00,Wednesday
148,29.455629550187294
596,-22.740221712030416
597,100.0
2,1, 5, 3, 0,19,20.00,30.00,Wednesday
148,29.354206749619224
596,-23.019683839187175
597,100.0
2,1, 5, 3, 0,19,30.00,40.00,Wednesday
148,29.071814558060426
596,-23.436319526006274
597,100.0
2,1, 5, 3, 0,19,40.00,50.00,Wednesday
148,28.732732073768493
596,-24.01584686104857
597,100.0
2,1, 5, 3, 0,19,50.00,60.00,Wednesday
148,28.598176332658036
596,-24.408408366921635
597,100.0
2,1, 5, 3, 0,20, 0.00,10.00,Wednesday
148,28.589837554563919
596,-24.51637403923479
597,100.0
2,1, 5, 3, 0,20,10.00,20.00,Wednesday
148,28.51807219332566
596,-24.714062005087059
597,100.0
2,1, 5, 3, 0,20,20.00,30.00,Wednesday
148,28.2143045278767
596,-25.30264829707085
597,100.0
2,1, 5, 3, 0,20,30.00,40.00,Wednesday
148,27.981261518241455
596,-25.767883730995608
597,100.0
2,1, 5, 3, 0,20,40.00,50.00,Wednesday
148,27.5572974243369
596,-26.57495270610425
597,100.0
2,1, 5, 3, 0,20,50.00,60.00,Wednesday
148,27.40692502003561
596,-26.997594120946759
597,100.0
2,1, 5, 3, 0,21, 0.00,10.00,Wednesday
148,27.163370336294017
596,-27.556429449126285
597,100.0
2,1, 5, 3, 0,21,10.00,20.00,Wednesday
148,27.073450669485703
596,-27.865448252269404
597,100.0
2,1, 5, 3, 0,21,20.00,30.00,Wednesday
148,26.837793998628265
596,-28.39536252894504
597,100.0
2,1, 5, 3, 0,21,30.00,40.00,Wednesday
148,26.463182967688917
596,-29.15716396452316
597,100.0
2,1, 5, 3, 0,21,40.00,50.00,Wednesday
148,26.68125390215696
596,-28.856767709612244
597,100.0
2,1, 5, 3, 0,21,50.00,60.00,Wednesday
148,26.491418356368805
596,-29.300691365261284
597,100.0
2,1, 5, 3, 0,22, 0.00,10.00,Wednesday
148,26.55428338239035
596,-29.26097352775738
597,100.0
2,1, 5, 3, 0,22,10.00,20.00,Wednesday
148,26.476013627853264
596,-29.450018448705543
597,100.0
2,1, 5, 3, 0,22,20.00,30.00,Wednesday
148,26.078535705289455
596,-30.351606121916324
597,100.0
2,1, 5, 3, 0,22,30.00,40.00,Wednesday
148,25.992090249013
596,-30.645408941441887
597,100.0
2,1, 5, 3, 0,22,40.00,50.00,Wednesday
148,26.141721765155
596,-30.44843264413071
597,100.0
2,1, 5, 3, 0,22,50.00,60.00,Wednesday
148,26.07549676047235
596,-30.636364299943968
597,100.0
2,1, 5, 3, 0,23, 0.00,10.00,Wednesday
148,26.314636214564794
596,-30.359093654439655
597,100.0
2,1, 5, 3, 0,23,10.00,20.00,Wednesday
148,26.287469156501467
596,-30.429682784100615
597,100.0
2,1, 5, 3, 0,23,20.00,30.00,Wednesday
148,26.228877229767059
596,-30.60124327597191
597,100.0
2,1, 5, 3, 0,23,30.00,40.00,Wednesday
148,26.37861310395853
596,-30.48057645308993
597,100.0
2,1, 5, 3, 0,23,40.00,50.00,Wednesday
148,26.395848652666588
596,-30.529211628889955
597,100.0
2,1, 5, 3, 0,23,50.00,60.00,Wednesday
148,26.340440206954964
596,-30.688121526231613
597,100.0
2,1, 5, 3, 0,24, 0.00,10.00,Wednesday
148,26.417868801210778
596,-30.6285394586215
597,100.0
2,1, 5, 3, 0,24,10.00,20.00,Wednesday
148,26.473830289921698
596,-30.61469198375174
597,100.0
2,1, 5, 3, 0,24,20.00,30.00,Wednesday
148,26.317586469079644
596,-30.936717089748624
597,100.0
2,1, 5, 3, 0,24,30.00,40.00,Wednesday
148,26.270008779738875
596,-31.081474245745367
597,100.0
2,1, 5, 3, 0,24,40.00,50.00,Wednesday
148,26.14307982679335
596,-31.38120002016425
597,100.0
2,1, 5, 3, 0,24,50.00,60.00,Wednesday
148,26.132500244346987
596,-31.465675118399795
597,100.0
2,2, 5, 4, 0, 1, 0.00,10.00,Thursday
148,26.408379581877669
596,-31.07037678912715
597,100.0
2,2, 5, 4, 0, 1,10.00,20.00,Thursday
148,26.529808382443514
596,-30.927415880152524
597,100.0
2,2, 5, 4, 0, 1,20.00,30.00,Thursday
148,26.275540096240677
596,-31.412225312759984
597,100.0
2,2, 5, 4, 0, 1,30.00,40.00,Thursday
148,25.97040362067872
596,-32.0223993112176
597,100.0
2,2, 5, 4, 0, 1,40.00,50.00,Thursday
148,25.96803429451113
596,-32.09903179587709
597,100.0
2,2, 5, 4, 0, 1,50.00,60.00,Thursday
148,26.078044973324283
596,-31.97180810618444
597,100.0
2,2, 5, 4, 0, 2, 0.00,10.00,Thursday
148,26.275508459183617
596,-31.692744246723295
597,100.0
2,2, 5, 4, 0, 2,10.00,20.00,Thursday
148,26.21475401028857
596,-31.850231412864618
597,100.0
2,2, 5, 4, 0, 2,20.00,30.00,Thursday
148,26.20500578370832
596,-31.910883522817305
597,100.0
2,2, 5, 4, 0, 2,30.00,40.00,Thursday
148,26.09103894972963
596,-32.1670425355491
597,100.0
2,2, 5, 4, 0, 2,40.00,50.00,Thursday
148,25.952303535669743
596,-32.46640816155489
597,100.0
2,2, 5, 4, 0, 2,50.00,60.00,Thursday
148,25.883010271901047
596,-32.662598238866078
597,100.0
2,2, 5, 4, 0, 3, 0.00,10.00,Thursday
148,25.976476971002357
596,-32.58313179034144
597,100.0
2,2, 5, 4, 0, 3,10.00,20.00,Thursday
148,25.757134751189196
596,-33.04528636979095
597,100.0
2,2, 5, 4, 0, 3,20.00,30.00,Thursday
148,25.761943842339087
596,-33.13206093174231
597,100.0
2,2, 5, 4, 0, 3,30.00,40.00,Thursday
148,25.41513095173665
596,-33.80735574773203
597,100.0
2,2, 5, 4, 0, 3,40.00,50.00,Thursday
148,25.23019944645514
596,-34.21428837198192
597,100.0
2,2, 5, 4, 0, 3,50.00,60.00,Thursday
148,25.351968888178598
596,-34.10790123613947
597,100.0
2,2, 5, 4, 0, 4, 0.00,10.00,Thursday
148,25.30923949103597
596,-34.26780901631813
597,100.0
2,2, 5, 4, 0, 4,10.00,20.00,Thursday
148,25.159801974890308
596,-34.60000734409183
597,100.0
2,2, 5, 4, 0, 4,20.00,30.00,Thursday
148,25.00609440023055
596,-34.9612838226673
597,100.0
2,2, 5, 4, 0, 4,30.00,40.00,Thursday
148,24.842402288979288
596,-35.34222602428889
597,100.0
2,2, 5, 4, 0, 4,40.00,50.00,Thursday
148,24.766725614137287
596,-35.55212661415725
597,100.0
2,2, 5, 4, 0, 4,50.00,60.00,Thursday
148,24.708084532101155
596,-35.69480340739677
597,100.0
2,2, 5, 4, 0, 5, 0.00,10.00,Thursday
148,24.627297117849407
596,-35.951009094813418
597,100.0
2,2, 5, 4, 0, 5,10.00,20.00,Thursday
148,24.493936163062377
596,-36.28320038756519
597,100.0
2,2, 5, 4, 0, 5,20.00,30.00,Thursday
148,24.229794412639376
596,-36.81175851290481
597,100.0
2,2, 5, 4, 0, 5,30.00,40.00,Thursday
148,24.161004001005879
596,-37.01699979241243
597,100.0
2,2, 5, 4, 0, 5,40.00,50.00,Thursday
148,24.165597472564785
596,-37.11697470255493
597,100.0
2,2, 5, 4, 0, 5,50.00,60.00,Thursday
148,24.08470779638003
596,-37.360752252723418
597,100.0
2,2, 5, 4, 0, 6, 0.00,10.00,Thursday
148,24.263924071947998
596,-37.08644048087337
597,100.0
2,2, 5, 4, 0, 6,10.00,20.00,Thursday
148,23.60108638164856
596,-38.394578594678019
597,100.0
2,2, 5, 4, 0, 6,20.00,30.00,Thursday
148,23.338665541539478
596,-39.00203167236464
597,100.0
2,2, 5, 4, 0, 6,30.00,40.00,Thursday
148,22.991268258150158
596,-39.77066275264695
597,100.0
2,2, 5, 4, 0, 6,40.00,50.00,Thursday
148,22.776173084825908
596,-40.29737163779838
597,100.0
2,2, 5, 4, 0, 6,50.00,60.00,Thursday
148,22.955847518108958
596,-40.00449390945775
597,100.0
2,2, 5, 4, 0, 7, 0.00,10.00,Thursday
148,23.386782893354807
596,-39.24821865970627
597,100.0
2,2, 5, 4, 0, 7,10.00,20.00,Thursday
148,23.62465465307033
596,-38.811380535010339
597,100.0
2,2, 5, 4, 0, 7,20.00,30.00,Thursday
148,23.326749500801879
596,-39.38639975747138
597,100.0
2,2, 5, 4, 0, 7,30.00,40.00,Thursday
148,23.605588066883663
596,-38.96948820036552
597,100.0
2,2, 5, 4, 0, 7,40.00,50.00,Thursday
148,23.84692682679273
596,-38.50545068290572
597,100.0
2,2, 5, 4, 0, 7,50.00,60.00,Thursday
148,23.989091838476396
596,-38.24421794254786
597,100.0
2,2, 5, 4, 0, 8, 0.00,10.00,Thursday
148,24.004162425962929
596,-38.20789862381674
597,100.0
2,2, 5, 4, 0, 8,10.00,20.00,Thursday
148,23.833930002516028
596,-38.48890408027016
597,100.0
2,2, 5, 4, 0, 8,20.00,30.00,Thursday
148,23.677993133451197
596,-38.75546668461745
597,100.0
2,2, 5, 4, 0, 8,30.00,40.00,Thursday
148,23.783236151294497
596,-38.4982578009241
597,100.0
2,2, 5, 4, 0, 8,40.00,50.00,Thursday
148,24.014742665144789
596,-37.96908788837577
597,100.0
2,2, 5, 4, 0, 8,50.00,60.00,Thursday
148,24.434665156485595
596,-37.13048995500669
597,100.0
2,2, 5, 4, 0, 9, 0.00,10.00,Thursday
148,24.803305005522046
596,-36.37961164144567
597,100.0
2,2, 5, 4, 0, 9,10.00,20.00,Thursday
148,25.029297810012247
596,-35.97127428836587
597,100.0
2,2, 5, 4, 0, 9,20.00,30.00,Thursday
148,25.259353392748488
596,-35.40158323184897
597,100.0
2,2, 5, 4, 0, 9,30.00,40.00,Thursday
148,25.496706992474118
596,-34.85494235454807
597,100.0
2,2, 5, 4, 0, 9,40.00,50.00,Thursday
148,25.6931265297881
596,-34.358310665763017
597,100.0
2,2, 5, 4, 0, 9,50.00,60.00,Thursday
148,25.79658744675579
596,-34.15001549115842
597,100.0
2,2, 5, 4, 0,10, 0.00,10.00,Thursday
148,27.572121392676516
596,0.04051209410416875
597,5.033976779645812
2,2, 5, 4, 0,10,10.00,20.00,Thursday
148,27.63358454162177
596,0.08694378324526062
597,5.156532578159158
2,2, 5, 4, 0,10,20.00,30.00,Thursday
148,27.897728463744764
596,0.16154192427231216
597,5.540819893752428
2,2, 5, 4, 0,10,30.00,40.00,Thursday
148,28.149130989371387
596,0.22183939439903672
597,6.020917156721239
2,2, 5, 4, 0,10,40.00,50.00,Thursday
148,28.287809013605025
596,0.2706928969276888
597,6.521607046038298
2,2, 5, 4, 0,10,50.00,60.00,Thursday
148,28.523204341617978
596,0.3419019650862388
597,7.431689731369175
2,2, 5, 4, 0,11, 0.00,10.00,Thursday
148,28.696102417121915
596,0.399107631742615
597,8.318781660105714
2,2, 5, 4, 0,11,10.00,20.00,Thursday
148,28.760246323776327
596,0.4287050579539444
597,8.832643222247654
2,2, 5, 4, 0,11,20.00,30.00,Thursday
148,28.906197896813283
596,0.47457010955554215
597,9.70325398901059
2,2, 5, 4, 0,11,30.00,40.00,Thursday
148,29.056220064876635
596,0.5274089900033067
597,10.818693077683819
2,2, 5, 4, 0,11,40.00,50.00,Thursday
148,29.139317700841639
596,0.5509044091197333
597,11.353482329580075
2,2, 5, 4, 0,11,50.00,60.00,Thursday
148,29.386550220896078
596,0.6285748439396376
597,13.291762913582844
2,2, 5, 4, 0,12, 0.00,10.00,Thursday
148,29.562719180896644
596,0.6923462580478856
597,15.078798257971286
2,2, 5, 4, 0,12,10.00,20.00,Thursday
148,29.872265722515495
596,0.7755648219744391
597,17.674688885645027
2,2, 5, 4, 0,12,20.00,30.00,Thursday
148,30.1023908687987
596,0.8547278402833712
597,20.417645502618
2,2, 5, 4, 0,12,30.00,40.00,Thursday
148,30.253130324981258
596,0.8978356915257728
597,22.021154930334249
2,2, 5, 4, 0,12,40.00,50.00,Thursday
148,30.372524688408818
596,0.9443642670928818
597,23.836648822880606
2,2, 5, 4, 0,12,50.00,60.00,Thursday
148,30.41243590743352
596,0.9655537726673332
597,24.691977942952947
2,2, 5, 4, 0,13, 0.00,10.00,Thursday
148,30.521297117545865
596,0.9993633892115525
597,26.09285270708989
2,2, 5, 4, 0,13,10.00,20.00,Thursday
148,30.829068764456684
596,1.1060346644085988
597,30.79039745748352
2,2, 5, 4, 0,13,20.00,30.00,Thursday
148,31.02814582692353
596,1.1618763533697656
597,33.40584347868534
2,2, 5, 4, 0,13,30.00,40.00,Thursday
148,31.12768391480975
596,1.197977924022052
597,35.14869010827681
2,2, 5, 4, 0,13,40.00,50.00,Thursday
148,31.236578815560216
596,1.2289153301670153
597,36.67236486585766
2,2, 5, 4, 0,13,50.00,60.00,Thursday
148,31.396959762072848
596,1.276677225419842
597,39.07490219791533
2,2, 5, 4, 0,14, 0.00,10.00,Thursday
148,31.53644367981797
596,1.3290369416690376
597,41.77123252084134
2,2, 5, 4, 0,14,10.00,20.00,Thursday
148,31.676259898596507
596,1.3609764112420134
597,43.4438719986682
2,2, 5, 4, 0,14,20.00,30.00,Thursday
148,31.701703553880049
596,1.3702102833245807
597,43.93092809725731
2,2, 5, 4, 0,14,30.00,40.00,Thursday
148,31.690289749213965
596,1.3788471809221253
597,44.38781040114401
2,2, 5, 4, 0,14,40.00,50.00,Thursday
148,31.780104120442365
596,1.3884733095411333
597,44.89845437503788
2,2, 5, 4, 0,14,50.00,60.00,Thursday
148,31.9281349076504
596,1.4656701726876627
597,49.03928398197637
2,2, 5, 4, 0,15, 0.00,10.00,Thursday
148,32.186475173555169
596,0.6425425357414319
597,13.668099856370333
2,2, 5, 4, 0,15,10.00,20.00,Thursday
148,32.06350014383705
596,0.6044569795648386
597,12.661873262055466
2,2, 5, 4, 0,15,20.00,30.00,Thursday
148,32.09346521424879
596,0.6034382033942656
597,12.635821433890456
2,2, 5, 4, 0,15,30.00,40.00,Thursday
148,32.073165925842108
596,0.5871490250310604
597,12.225397651635987
2,2, 5, 4, 0,15,40.00,50.00,Thursday
148,32.09476241106405
596,0.6253031498676155
597,13.204835807057905
2,2, 5, 4, 0,15,50.00,60.00,Thursday
148,32.16010986928843
596,0.6808910526013264
597,14.74482023091825
2,2, 5, 4, 0,16, 0.00,10.00,Thursday
148,32.510089745792857
596,0.8621226611484365
597,20.687274619807867
2,2, 5, 4, 0,16,10.00,20.00,Thursday
148,32.79389781201583
596,1.0244803322986762
597,27.16169882614689
2,2, 5, 4, 0,16,20.00,30.00,Thursday
148,32.861795228570908
596,1.071402293735423
597,29.220669863382825
2,2, 5, 4, 0,16,30.00,40.00,Thursday
148,32.959772671966167
596,1.120188250319467
597,31.44367605660456
2,2, 5, 4, 0,16,40.00,50.00,Thursday
148,32.94732160948819
596,1.0971114571162244
597,30.38200190669248
2,2, 5, 4, 0,16,50.00,60.00,Thursday
148,32.76577392150864
596,1.0140053899439634
597,26.71306396026246
2,2, 5, 4, 0,17, 0.00,10.00,Thursday
148,32.830639252410978
596,1.913280917835142
597,72.6993618063083
2,2, 5, 4, 0,17,10.00,20.00,Thursday
148,33.12699124219295
596,1.9702631805215459
597,75.4005356626866
2,2, 5, 4, 0,17,20.00,30.00,Thursday
148,33.046281070102349
596,1.958881550411133
597,74.8704670755512
2,2, 5, 4, 0,17,30.00,40.00,Thursday
148,33.02147424494919
596,1.9596281833384118
597,74.90538901370417
2,2, 5, 4, 0,17,40.00,50.00,Thursday
148,32.87861209504076
596,1.9313519023994784
597,73.56856265903109
2,2, 5, 4, 0,17,50.00,60.00,Thursday
148,32.77601187529865
596,1.894168229550372
597,71.76808271749809
2,2, 5, 4, 0,18, 0.00,10.00,Thursday
148,32.69054898969851
596,1.878397818915777
597,70.99079897044702
2,2, 5, 4, 0,18,10.00,20.00,Thursday
148,32.69243756412786
596,1.8813078869030078
597,71.13481447395117
2,2, 5, 4, 0,18,20.00,30.00,Thursday
148,32.75242252788975
596,1.9030014259698638
597,72.1999803806945
2,2, 5, 4, 0,18,30.00,40.00,Thursday
148,32.832529776025378
596,1.9248321581488413
597,73.2562684090115
2,2, 5, 4, 0,18,40.00,50.00,Thursday
148,32.923870548405627
596,1.9473261661323267
597,74.32735641113043
2,2, 5, 4, 0,18,50.00,60.00,Thursday
148,32.817882141815989
596,1.920061211424796
597,73.02680593251377
2,2, 5, 4, 0,19, 0.00,10.00,Thursday
148,31.442255502504609
596,-19.144748332948315
597,100.0
2,2, 5, 4, 0,19,10.00,20.00,Thursday
148,30.99618148237199
596,-19.9021047294037
597,100.0
2,2, 5, 4, 0,19,20.00,30.00,Thursday
148,30.91668281764251
596,-20.04101489240104
597,100.0
2,2, 5, 4, 0,19,30.00,40.00,Thursday
148,30.6476196288851
596,-20.484626082819287
597,100.0
2,2, 5, 4, 0,19,40.00,50.00,Thursday
148,30.606755750055215
596,-20.626767651333006
597,100.0
2,2, 5, 4, 0,19,50.00,60.00,Thursday
148,30.510693665802383
596,-20.90815217816813
597,100.0
2,2, 5, 4, 0,20, 0.00,10.00,Thursday
148,30.349637845013846
596,-21.211899526140539
597,100.0
2,2, 5, 4, 0,20,10.00,20.00,Thursday
148,30.1116923852
596,-21.621256679852825
597,100.0
2,2, 5, 4, 0,20,20.00,30.00,Thursday
148,29.889655700543714
596,-22.01104030043347
597,100.0
2,2, 5, 4, 0,20,30.00,40.00,Thursday
148,29.734099060366096
596,-22.287407856315789
597,100.0
2,2, 5, 4, 0,20,40.00,50.00,Thursday
148,29.600373502663709
596,-22.52634368866114
597,100.0
2,2, 5, 4, 0,20,50.00,60.00,Thursday
148,29.513794659222677
596,-22.679966875283
597,100.0
2,2, 5, 4, 0,21, 0.00,10.00,Thursday
148,29.431058680379793
596,-22.851036600929385
597,100.0
2,2, 5, 4, 0,21,10.00,20.00,Thursday
148,29.346228020413215
596,-23.015851877998509
597,100.0
2,2, 5, 4, 0,21,20.00,30.00,Thursday
148,29.238774660739546
596,-23.239731995041308
597,100.0
2,2, 5, 4, 0,21,30.00,40.00,Thursday
148,29.195613047556568
596,-23.346946067089769
597,100.0
2,2, 5, 4, 0,21,40.00,50.00,Thursday
148,29.13252011123264
596,-23.493682247260837
597,100.0
2,2, 5, 4, 0,21,50.00,60.00,Thursday
148,28.99747583264978
596,-23.752575656265898
597,100.0
2,2, 5, 4, 0,22, 0.00,10.00,Thursday
148,28.751087808767147
596,-24.226727758531518
597,100.0
2,2, 5, 4, 0,22,10.00,20.00,Thursday
148,28.651866540888319
596,-24.463413025692924
597,100.0
2,2, 5, 4, 0,22,20.00,30.00,Thursday
148,28.48834346324121
596,-24.848766446365525
597,100.0
2,2, 5, 4, 0,22,30.00,40.00,Thursday
148,28.486087426563107
596,-24.862749815332348
597,100.0
2,2, 5, 4, 0,22,40.00,50.00,Thursday
148,28.469541897616926
596,-24.9843822978354
597,100.0
2,2, 5, 4, 0,22,50.00,60.00,Thursday
148,28.544526502434246
596,-24.967580737155175
597,100.0
2,2, 5, 4, 0,23, 0.00,10.00,Thursday
148,28.48706738417053
596,-25.119010578432186
597,100.0
2,2, 5, 4, 0,23,10.00,20.00,Thursday
148,28.484753210914186
596,-25.222457567928779
597,100.0
2,2, 5, 4, 0,23,20.00,30.00,Thursday
148,28.40354551923885
596,-25.41393077160096
597,100.0
2,2, 5, 4, 0,23,30.00,40.00,Thursday
148,28.278547314971158
596,-25.718475391694118
597,100.0
2,2, 5, 4, 0,23,40.00,50.00,Thursday
148,28.17137575241803
596,-25.990510791291539
597,100.0
2,2, 5, 4, 0,23,50.00,60.00,Thursday
148,28.134074172061898
596,-26.10082029956721
597,100.0
2,2, 5, 4, 0,24, 0.00,10.00,Thursday
148,28.1145210373129
596,-26.189879371865254
597,100.0
2,2, 5, 4, 0,24,10.00,20.00,Thursday
148,27.91078982651522
596,-26.61533498521746
597,100.0
2,2, 5, 4, 0,24,20.00,30.00,Thursday
148,27.82219425705811
596,-26.881462230010379
597,100.0
2,2, 5, 4, 0,24,30.00,40.00,Thursday
148,27.839391703352537
596,-26.936776723298754
597,100.0
2,2, 5, 4, 0,24,40.00,50.00,Thursday
148,27.794404445017326
596,-27.133585112163844
597,100.0
2,2, 5, 4, 0,24,50.00,60.00,Thursday
148,27.612656904607034
596,-27.486500915270715
597,100.0
2,3, 5, 5, 0, 1, 0.00,10.00,Friday
148,27.469175487707419
596,-27.826736651059905
597,100.0
2,3, 5, 5, 0, 1,10.00,20.00,Friday
148,27.41420686351768
596,-27.98735226546706
597,100.0
2,3, 5, 5, 0, 1,20.00,30.00,Friday
148,27.44995643162078
596,-28.02090485453121
597,100.0
2,3, 5, 5, 0, 1,30.00,40.00,Friday
148,27.457954207713589
596,-28.043742896710787
597,100.0
2,3, 5, 5, 0, 1,40.00,50.00,Friday
148,27.241188387864399
596,-28.516350388737786
597,100.0
2,3, 5, 5, 0, 1,50.00,60.00,Friday
148,27.236013819803938
596,-28.605702556899069
597,100.0
2,3, 5, 5, 0, 2, 0.00,10.00,Friday
148,27.252320871415177
596,-28.657400888684007
597,100.0
2,3, 5, 5, 0, 2,10.00,20.00,Friday
148,27.235564667577948
596,-28.78815233498896
597,100.0
2,3, 5, 5, 0, 2,20.00,30.00,Friday
148,27.016262778246678
596,-29.243979961780356
597,100.0
2,3, 5, 5, 0, 2,30.00,40.00,Friday
148,26.234261911458995
596,-30.72801498293371