Program Version,EnergyPlus, Version 9.5.0-de239b2e5f, YMD=2021.12.08 22:33
1,5,Environment Title[],Latitude[deg],Longitude[deg],Time Zone[],Elevation[m]
2,8,Day of Simulation[],Month[],Day of Month[],DST Indicator[1=yes 0=no],Hour[],StartMinute[],EndMinute[],DayType
3,5,Cumulative Day of Simulation[],Month[],Day of Month[],DST Indicator[1=yes 0=no],DayType  ! When Daily Report Variables Requested
4,2,Cumulative Days of Simulation[],Month[]  ! When Monthly Report Variables Requested
5,1,Cumulative Days of Simulation[] ! When Run Period Report Variables Requested
6,1,Calendar Year of Simulation[] ! When Annual Report Variables Requested
148,1,THERMAL ZONE: JORGE,Zone Mean Air Temperature [C] !TimeStep
596,1,JORGE,Zone Thermal Comfort Fanger Model PMV [] !TimeStep
597,1,JORGE,Zone Thermal Comfort Fanger Model PPD [%] !TimeStep
End of Data Dictionary
1,RUN PERIOD 1,  18.85, -99.14,  -6.00,1280.00
2,1, 5, 3, 0, 1, 0.00,10.00,Wednesday
148,25.50863115929375
596,-32.87494522445644
597,100.0
2,1, 5, 3, 0, 1,10.00,20.00,Wednesday
148,25.54393547994396
596,-32.91149686809477
597,100.0
2,1, 5, 3, 0, 1,20.00,30.00,Wednesday
148,25.709361590069088
596,-32.64808099042034
597,100.0
2,1, 5, 3, 0, 1,30.00,40.00,Wednesday
148,25.67360189987454
596,-32.78004215511456
597,100.0
2,1, 5, 3, 0, 1,40.00,50.00,Wednesday
148,25.459698261436846
596,-33.23837699038655
597,100.0
2,1, 5, 3, 0, 1,50.00,60.00,Wednesday
148,25.183685339146597
596,-33.81817883979653
597,100.0
2,1, 5, 3, 0, 2, 0.00,10.00,Wednesday
148,24.958872157992486
596,-34.33843853563164
597,100.0
2,1, 5, 3, 0, 2,10.00,20.00,Wednesday
148,24.747512732318464
596,-34.812032741747277
597,100.0
2,1, 5, 3, 0, 2,20.00,30.00,Wednesday
148,24.417642302783468
596,-35.5202946024544
597,100.0
2,1, 5, 3, 0, 2,30.00,40.00,Wednesday
148,24.255505969518798
596,-35.91721560914513
597,100.0
2,1, 5, 3, 0, 2,40.00,50.00,Wednesday
148,24.28044390544719
596,-35.95670350414817
597,100.0
2,1, 5, 3, 0, 2,50.00,60.00,Wednesday
148,24.39470383459226
596,-35.83102634163856
597,100.0
2,1, 5, 3, 0, 3, 0.00,10.00,Wednesday
148,24.456272953509314
596,-35.79506276986668
597,100.0
2,1, 5, 3, 0, 3,10.00,20.00,Wednesday
148,24.751468279917924
596,-35.33891849194381
597,100.0
2,1, 5, 3, 0, 3,20.00,30.00,Wednesday
148,25.004641766025416
596,-34.92974716165577
597,100.0
2,1, 5, 3, 0, 3,30.00,40.00,Wednesday
148,24.881227504603936
596,-35.22038733884848
597,100.0
2,1, 5, 3, 0, 3,40.00,50.00,Wednesday
148,24.80183678118392
596,-35.42495082352727
597,100.0
2,1, 5, 3, 0, 3,50.00,60.00,Wednesday
148,24.750434018808659
596,-35.604791395490057
597,100.0
2,1, 5, 3, 0, 4, 0.00,10.00,Wednesday
148,24.659344310479498
596,-35.84291204915242
597,100.0
2,1, 5, 3, 0, 4,10.00,20.00,Wednesday
148,24.46356658281195
596,-36.257133705668987
597,100.0
2,1, 5, 3, 0, 4,20.00,30.00,Wednesday
148,24.456484632393516
596,-36.38306409879681
597,100.0
2,1, 5, 3, 0, 4,30.00,40.00,Wednesday
148,23.96157975657892
596,-37.38098597741448
597,100.0
2,1, 5, 3, 0, 4,40.00,50.00,Wednesday
148,23.401855045801179
596,-38.59243082769982
597,100.0
2,1, 5, 3, 0, 4,50.00,60.00,Wednesday
148,23.27733136098815
596,-38.94810375152553
597,100.0
2,1, 5, 3, 0, 5, 0.00,10.00,Wednesday
148,23.19459591767942
596,-39.19893010061295
597,100.0
2,1, 5, 3, 0, 5,10.00,20.00,Wednesday
148,23.544655924206749
596,-38.64676710186644
597,100.0
2,1, 5, 3, 0, 5,20.00,30.00,Wednesday
148,23.81749806672139
596,-38.15600328995686
597,100.0
2,1, 5, 3, 0, 5,30.00,40.00,Wednesday
148,24.0457536055095
596,-37.791684389691159
597,100.0
2,1, 5, 3, 0, 5,40.00,50.00,Wednesday
148,23.88637233356934
596,-38.09492644853536
597,100.0
2,1, 5, 3, 0, 5,50.00,60.00,Wednesday
148,23.458006364113389
596,-38.99035172227209
597,100.0
2,1, 5, 3, 0, 6, 0.00,10.00,Wednesday
148,23.12693173236056
596,-39.69046457710774
597,100.0
2,1, 5, 3, 0, 6,10.00,20.00,Wednesday
148,22.8706835398912
596,-40.34585974976931
597,100.0
2,1, 5, 3, 0, 6,20.00,30.00,Wednesday
148,22.874192623264216
596,-40.419699503386919
597,100.0
2,1, 5, 3, 0, 6,30.00,40.00,Wednesday
148,22.54321838815936
596,-41.18182001550856
597,100.0
2,1, 5, 3, 0, 6,40.00,50.00,Wednesday
148,22.313841145131364
596,-41.713681280001889
597,100.0
2,1, 5, 3, 0, 6,50.00,60.00,Wednesday
148,22.195866471176804
596,-42.03632994865256
597,100.0
2,1, 5, 3, 0, 7, 0.00,10.00,Wednesday
148,22.343113447147294
596,-41.82627397581786
597,100.0
2,1, 5, 3, 0, 7,10.00,20.00,Wednesday
148,22.63414801433634
596,-41.303638128031419
597,100.0
2,1, 5, 3, 0, 7,20.00,30.00,Wednesday
148,22.898825944267477
596,-40.859507473392067
597,100.0
2,1, 5, 3, 0, 7,30.00,40.00,Wednesday
148,22.183025990952733
596,-42.28253027005894
597,100.0
2,1, 5, 3, 0, 7,40.00,50.00,Wednesday
148,21.951538040774289
596,-42.818647141946218
597,100.0
2,1, 5, 3, 0, 7,50.00,60.00,Wednesday
148,22.786291096277304
596,-41.23274520819422
597,100.0
2,1, 5, 3, 0, 8, 0.00,10.00,Wednesday
148,23.016324431728159
596,-40.70101085168023
597,100.0
2,1, 5, 3, 0, 8,10.00,20.00,Wednesday
148,22.550924387710475
596,-41.600086594806679
597,100.0
2,1, 5, 3, 0, 8,20.00,30.00,Wednesday
148,22.684352022805574
596,-41.312160226837608
597,100.0
2,1, 5, 3, 0, 8,30.00,40.00,Wednesday
148,22.94505282789886
596,-40.743200525644059
597,100.0
2,1, 5, 3, 0, 8,40.00,50.00,Wednesday
148,23.230013232809964
596,-40.09312232228766
597,100.0
2,1, 5, 3, 0, 8,50.00,60.00,Wednesday
148,23.832603311116026
596,-38.84237900194174
597,100.0
2,1, 5, 3, 0, 9, 0.00,10.00,Wednesday
148,24.307666386922727
596,-37.7510088683666
597,100.0
2,1, 5, 3, 0, 9,10.00,20.00,Wednesday
148,24.53061353240546
596,-37.256884514831487
597,100.0
2,1, 5, 3, 0, 9,20.00,30.00,Wednesday
148,24.795576639430548
596,-36.70322416712965
597,100.0
2,1, 5, 3, 0, 9,30.00,40.00,Wednesday
148,25.039478593059664
596,-36.15963900996378
597,100.0
2,1, 5, 3, 0, 9,40.00,50.00,Wednesday
148,25.22458857650456
596,-35.67159662695601
597,100.0
2,1, 5, 3, 0, 9,50.00,60.00,Wednesday
148,25.370157041039727
596,-35.27922116900506
597,100.0
2,1, 5, 3, 0,10, 0.00,10.00,Wednesday
148,27.42627491268884
596,0.004570642807401967
597,5.000432449907706
2,1, 5, 3, 0,10,10.00,20.00,Wednesday
148,27.62031829082396
596,0.09321645461743464
597,5.179942881327662
2,1, 5, 3, 0,10,20.00,30.00,Wednesday
148,27.962962346601729
596,0.17897256411283306
597,5.663998210042664
2,1, 5, 3, 0,10,30.00,40.00,Wednesday
148,28.454943471146465
596,0.31265577894360599
597,7.031942239788975
2,1, 5, 3, 0,10,40.00,50.00,Wednesday
148,28.513678003995645
596,0.35303265961474186
597,7.593369061534673
2,1, 5, 3, 0,10,50.00,60.00,Wednesday
148,28.406304474883468
596,0.3403212115449827
597,7.409155483862762
2,1, 5, 3, 0,11, 0.00,10.00,Wednesday
148,28.182128383828919
596,0.28733825607835186
597,6.715142973361665
2,1, 5, 3, 0,11,10.00,20.00,Wednesday
148,28.566876451165166
596,0.37962387812615069
597,8.000972540815156
2,1, 5, 3, 0,11,20.00,30.00,Wednesday
148,29.002207297962177
596,0.50220468370742
597,10.271575746159215
2,1, 5, 3, 0,11,30.00,40.00,Wednesday
148,29.096806368032156
596,0.5473000422699174
597,11.26988856641222
2,1, 5, 3, 0,11,40.00,50.00,Wednesday
148,29.093535492031934
596,0.5589661995722147
597,11.542492847699919
2,1, 5, 3, 0,11,50.00,60.00,Wednesday
148,29.255829787342038
596,0.6106290736967743
597,12.820667269856927
2,1, 5, 3, 0,12, 0.00,10.00,Wednesday
148,29.412832164342693
596,0.6652952289852262
597,14.299247364095948
2,1, 5, 3, 0,12,10.00,20.00,Wednesday
148,29.521468518807006
596,0.6957127089391104
597,15.178025813075692
2,1, 5, 3, 0,12,20.00,30.00,Wednesday
148,29.79197603843747
596,0.7801799090704621
597,17.827329900195367
2,1, 5, 3, 0,12,30.00,40.00,Wednesday
148,29.93357379593836
596,0.8235220790875255
597,19.30490352416254
2,1, 5, 3, 0,12,40.00,50.00,Wednesday
148,30.183448302492996
596,0.8959385392076865
597,21.948983264800803
2,1, 5, 3, 0,12,50.00,60.00,Wednesday
148,30.429444969280753
596,0.9683664412468281
597,24.806835021099404
2,1, 5, 3, 0,13, 0.00,10.00,Wednesday
148,30.76042089112683
596,1.0690953207255186
597,29.11758883230148
2,1, 5, 3, 0,13,10.00,20.00,Wednesday
148,30.834742983197868
596,1.107354301067665
597,30.851023276607437
2,1, 5, 3, 0,13,20.00,30.00,Wednesday
148,30.848524949929627
596,1.1370649266098814
597,32.23129675372617
2,1, 5, 3, 0,13,30.00,40.00,Wednesday
148,30.917730057991585
596,1.1412357616006806
597,32.427371830518129
2,1, 5, 3, 0,13,40.00,50.00,Wednesday
148,31.042413615393298
596,1.1563959923898577
597,33.144739540035988
2,1, 5, 3, 0,13,50.00,60.00,Wednesday
148,31.150050901285409
596,1.193779708307283
597,34.94402476276649
2,1, 5, 3, 0,14, 0.00,10.00,Wednesday
148,31.20544197211309
596,1.2458077151299048
597,37.51538431719699
2,1, 5, 3, 0,14,10.00,20.00,Wednesday
148,31.41737865358845
596,1.3307729055851865
597,41.861635705521958
2,1, 5, 3, 0,14,20.00,30.00,Wednesday
148,31.53291867376337
596,1.3759396341795816
597,44.233865851411568
2,1, 5, 3, 0,14,30.00,40.00,Wednesday
148,31.56282321145745
596,1.399158754829201
597,45.46697560007342
2,1, 5, 3, 0,14,40.00,50.00,Wednesday
148,32.02112485379372
596,1.5064633957812382
597,51.251355632005559
2,1, 5, 3, 0,14,50.00,60.00,Wednesday
148,32.532909559446867
596,1.6281910785406977
597,57.87761222258881
2,1, 5, 3, 0,15, 0.00,10.00,Wednesday
148,31.835583634104276
596,-23.344622647378136
597,100.0
2,1, 5, 3, 0,15,10.00,20.00,Wednesday
148,31.67283639502486
596,-23.621513167200644
597,100.0
2,1, 5, 3, 0,15,20.00,30.00,Wednesday
148,32.071746471615458
596,-22.42576782915643
597,100.0
2,1, 5, 3, 0,15,30.00,40.00,Wednesday
148,32.16465396451284
596,-21.98445413201296
597,100.0
2,1, 5, 3, 0,15,40.00,50.00,Wednesday
148,32.274587216583778
596,-21.710146065504753
597,100.0
2,1, 5, 3, 0,15,50.00,60.00,Wednesday
148,32.41421135272439
596,-21.21607453725766
597,100.0
2,1, 5, 3, 0,16, 0.00,10.00,Wednesday
148,32.514274942609038
596,-20.77534132994473
597,100.0
2,1, 5, 3, 0,16,10.00,20.00,Wednesday
148,32.64801626778893
596,-20.468237791536695
597,100.0
2,1, 5, 3, 0,16,20.00,30.00,Wednesday
148,32.61463165677399
596,-20.512895961117878
597,100.0
2,1, 5, 3, 0,16,30.00,40.00,Wednesday
148,32.67334416894377
596,1.0074010707457746
597,26.432315249604686
2,1, 5, 3, 0,16,40.00,50.00,Wednesday
148,32.97776436614833
596,1.1239040467276336
597,31.616288109606189
2,1, 5, 3, 0,16,50.00,60.00,Wednesday
148,32.682166052953849
596,0.9741920104609928
597,25.045703906332265
2,1, 5, 3, 0,17, 0.00,10.00,Wednesday
148,32.5350585405085
596,1.8521164607341163
597,69.67863538108378
2,1, 5, 3, 0,17,10.00,20.00,Wednesday
148,32.15007032035302
596,1.7717304614562118
597,65.55049638623368
2,1, 5, 3, 0,17,20.00,30.00,Wednesday
148,31.436662379216086
596,1.6058591398670559
597,56.664105334610919
2,1, 5, 3, 0,17,30.00,40.00,Wednesday
148,31.460776149169918
596,1.6008988088571426
597,56.394224625422989
2,1, 5, 3, 0,17,40.00,50.00,Wednesday
148,31.39274964853765
596,1.5895433242002169
597,55.77605197175716
2,1, 5, 3, 0,17,50.00,60.00,Wednesday
148,31.190515019276284
596,1.5577621343017912
597,54.04445974774037
2,1, 5, 3, 0,18, 0.00,10.00,Wednesday
148,30.829788911738416
596,1.5024005873409925
597,51.03055668745699
2,1, 5, 3, 0,18,10.00,20.00,Wednesday
148,30.74118855968067
596,1.499495973851817
597,50.87275700265602
2,1, 5, 3, 0,18,20.00,30.00,Wednesday
148,30.853269227313946
596,1.5354585944570319
597,52.829233145257877
2,1, 5, 3, 0,18,30.00,40.00,Wednesday
148,30.855228175129775
596,1.543001149720307
597,53.24011412445653
2,1, 5, 3, 0,18,40.00,50.00,Wednesday
148,31.0009426431922
596,1.572962997342065
597,54.87283334536853
2,1, 5, 3, 0,18,50.00,60.00,Wednesday
148,31.29889235365114
596,1.6357401460358987
597,58.28713083275072
2,1, 5, 3, 0,19, 0.00,10.00,Wednesday
148,29.660252573227426
596,-22.248820834047196
597,100.0
2,1, 5, 3, 0,19,10.00,20.00,Wednesday
148,29.449611550605778
596,-22.761464801839766
597,100.0
2,1, 5, 3, 0,19,20.00,30.00,Wednesday
148,29.34723044044509
596,-23.04180816708849
597,100.0
2,1, 5, 3, 0,19,30.00,40.00,Wednesday
148,29.06558656358139
596,-23.457121596572017
597,100.0
2,1, 5, 3, 0,19,40.00,50.00,Wednesday
148,28.727232395674944
596,-24.036923310136875
597,100.0
2,1, 5, 3, 0,19,50.00,60.00,Wednesday
148,28.592783654122909
596,-24.428863587776573
597,100.0
2,1, 5, 3, 0,20, 0.00,10.00,Wednesday
148,28.584209947286746
596,-24.53690771262111
597,100.0
2,1, 5, 3, 0,20,10.00,20.00,Wednesday
148,28.512461119842305
596,-24.734372396659084
597,100.0
2,1, 5, 3, 0,20,20.00,30.00,Wednesday
148,28.209479560017024
596,-25.321516083854275
597,100.0
2,1, 5, 3, 0,20,30.00,40.00,Wednesday
148,27.977034454743067
596,-25.785515156059807
597,100.0
2,1, 5, 3, 0,20,40.00,50.00,Wednesday
148,27.554544121636689
596,-26.58991067232265
597,100.0
2,1, 5, 3, 0,20,50.00,60.00,Wednesday
148,27.403771803932693
596,-27.01285511956065
597,100.0
2,1, 5, 3, 0,21, 0.00,10.00,Wednesday
148,27.160204721504834
596,-27.571553764482326
597,100.0
2,1, 5, 3, 0,21,10.00,20.00,Wednesday
148,27.070662237665116
596,-27.87970361714785
597,100.0
2,1, 5, 3, 0,21,20.00,30.00,Wednesday
148,26.835559207839549
596,-28.408433931831096
597,100.0
2,1, 5, 3, 0,21,30.00,40.00,Wednesday
148,26.461752488521947
596,-29.1685813489534
597,100.0
2,1, 5, 3, 0,21,40.00,50.00,Wednesday
148,26.679412655977225
596,-28.86861513538602
597,100.0
2,1, 5, 3, 0,21,50.00,60.00,Wednesday
148,26.48975545750099
596,-29.312074817308305
597,100.0
2,1, 5, 3, 0,22, 0.00,10.00,Wednesday
148,26.552616166060916
596,-29.272153753746545
597,100.0
2,1, 5, 3, 0,22,10.00,20.00,Wednesday
148,26.474360069206779
596,-29.460998638449675
597,100.0
2,1, 5, 3, 0,22,20.00,30.00,Wednesday
148,26.076792473988996
596,-30.362582668990755
597,100.0
2,1, 5, 3, 0,22,30.00,40.00,Wednesday
148,25.990242259616119
596,-30.656385377333224
597,100.0
2,1, 5, 3, 0,22,40.00,50.00,Wednesday
148,26.139731326209778
596,-30.4594910521306
597,100.0
2,1, 5, 3, 0,22,50.00,60.00,Wednesday
148,26.07352483906961
596,-30.647249059788586
597,100.0
2,1, 5, 3, 0,23, 0.00,10.00,Wednesday
148,26.31196537586774
596,-30.371055283635049
597,100.0
2,1, 5, 3, 0,23,10.00,20.00,Wednesday
148,26.285416934008368
596,-30.440454832057449
597,100.0
2,1, 5, 3, 0,23,20.00,30.00,Wednesday
148,26.22705791687857
596,-30.611432389556975
597,100.0
2,1, 5, 3, 0,23,30.00,40.00,Wednesday
148,26.375919522649846
596,-30.492151386670064
597,100.0
2,1, 5, 3, 0,23,40.00,50.00,Wednesday
148,26.392854995919334
596,-30.541247569111186
597,100.0
2,1, 5, 3, 0,23,50.00,60.00,Wednesday
148,26.33788094852155
596,-30.699286057541486
597,100.0
2,1, 5, 3, 0,24, 0.00,10.00,Wednesday
148,26.41534158293354
596,-30.639448612571976
597,100.0
2,1, 5, 3, 0,24,10.00,20.00,Wednesday
148,26.47120018043697
596,-30.625672613205507
597,100.0
2,1, 5, 3, 0,24,20.00,30.00,Wednesday
148,26.315255370425775
596,-30.94710200911951
597,100.0
2,1, 5, 3, 0,24,30.00,40.00,Wednesday
148,26.267827243574229
596,-31.091466974219057
597,100.0
2,1, 5, 3, 0,24,40.00,50.00,Wednesday
148,26.141297016994778
596,-31.390364419737815
597,100.0
2,1, 5, 3, 0,24,50.00,60.00,Wednesday
148,26.130884057460209
596,-31.474401388742899
597,100.0
2,2, 5, 4, 0, 1, 0.00,10.00,Thursday
148,26.405928165424244
596,-31.08045422435624
597,100.0
2,2, 5, 4, 0, 1,10.00,20.00,Thursday
148,26.52689724992878
596,-30.938268981104814
597,100.0
2,2, 5, 4, 0, 1,20.00,30.00,Thursday
148,26.27294795720247
596,-31.42245663270417
597,100.0
2,2, 5, 4, 0, 1,30.00,40.00,Thursday
148,25.968134407466054
596,-32.03197025342274
597,100.0
2,2, 5, 4, 0, 1,40.00,50.00,Thursday
148,25.965661337826039
596,-32.108656151550459
597,100.0
2,2, 5, 4, 0, 1,50.00,60.00,Thursday
148,26.075535608956593
596,-31.981583540507548
597,100.0
2,2, 5, 4, 0, 2, 0.00,10.00,Thursday
148,26.27282715499712
596,-31.702759544888044
597,100.0
2,2, 5, 4, 0, 2,10.00,20.00,Thursday
148,26.212175825641955
596,-31.859974871004864
597,100.0
2,2, 5, 4, 0, 2,20.00,30.00,Thursday
148,26.20239061968163
596,-31.92062025046562
597,100.0
2,2, 5, 4, 0, 2,30.00,40.00,Thursday
148,26.088563484218875
596,-32.17645655727134
597,100.0
2,2, 5, 4, 0, 2,40.00,50.00,Thursday
148,25.950015278684835
596,-32.47541236898496
597,100.0
2,2, 5, 4, 0, 2,50.00,60.00,Thursday
148,25.880767339513417
596,-32.6714350094705
597,100.0
2,2, 5, 4, 0, 3, 0.00,10.00,Thursday
148,25.97398282982144
596,-32.59233127428022
597,100.0
2,2, 5, 4, 0, 3,10.00,20.00,Thursday
148,25.75479203533367
596,-33.05416648687725
597,100.0
2,2, 5, 4, 0, 3,20.00,30.00,Thursday
148,25.75957029506187
596,-33.14093375227708
597,100.0
2,2, 5, 4, 0, 3,30.00,40.00,Thursday
148,25.412964182407437
596,-33.81579772151138
597,100.0
2,2, 5, 4, 0, 3,40.00,50.00,Thursday
148,25.228074806017646
596,-34.22256975682331
597,100.0
2,2, 5, 4, 0, 3,50.00,60.00,Thursday
148,25.349767324692427
596,-34.11626123582586
597,100.0
2,2, 5, 4, 0, 4, 0.00,10.00,Thursday
148,25.307077773073499
596,-34.276039594085698
597,100.0
2,2, 5, 4, 0, 4,10.00,20.00,Thursday
148,25.157623839232408
596,-34.608199830479637
597,100.0
2,2, 5, 4, 0, 4,20.00,30.00,Thursday
148,25.004017129055538
596,-34.969250017147029
597,100.0
2,2, 5, 4, 0, 4,30.00,40.00,Thursday
148,24.84039401734837
596,-35.34999737210331
597,100.0
2,2, 5, 4, 0, 4,40.00,50.00,Thursday
148,24.76473484767702
596,-35.5597891826826
597,100.0
2,2, 5, 4, 0, 4,50.00,60.00,Thursday
148,24.70605862073917
596,-35.70245302231669
597,100.0
2,2, 5, 4, 0, 5, 0.00,10.00,Thursday
148,24.62523505897819
596,-35.95866737545829
597,100.0
2,2, 5, 4, 0, 5,10.00,20.00,Thursday
148,24.491838125745596
596,-36.290866946070838
597,100.0
2,2, 5, 4, 0, 5,20.00,30.00,Thursday
148,24.22789929500665
596,-36.81900432418388
597,100.0
2,2, 5, 4, 0, 5,30.00,40.00,Thursday
148,24.159204022757544
596,-37.02400232914499
597,100.0
2,2, 5, 4, 0, 5,40.00,50.00,Thursday
148,24.16374009473614
596,-37.12401149200318
597,100.0
2,2, 5, 4, 0, 5,50.00,60.00,Thursday
148,24.08284654376044
596,-37.36774501890343
597,100.0
2,2, 5, 4, 0, 6, 0.00,10.00,Thursday
148,24.261956949025686
596,-37.09356708038982
597,100.0
2,2, 5, 4, 0, 6,10.00,20.00,Thursday
148,23.599471694676855
596,-38.401034175603459
597,100.0
2,2, 5, 4, 0, 6,20.00,30.00,Thursday
148,23.33710480555774
596,-39.0083033061933
597,100.0
2,2, 5, 4, 0, 6,30.00,40.00,Thursday
148,22.98980612923732
596,-39.776700792603168
597,100.0
2,2, 5, 4, 0, 6,40.00,50.00,Thursday
148,22.774779550265309
596,-40.30321038377416
597,100.0
2,2, 5, 4, 0, 6,50.00,60.00,Thursday
148,22.954432796229854
596,-40.010305837429239
597,100.0
2,2, 5, 4, 0, 7, 0.00,10.00,Thursday
148,23.38518926449705
596,-39.2543010804092
597,100.0
2,2, 5, 4, 0, 7,10.00,20.00,Thursday
148,23.62300295668713
596,-38.81753811485602
597,100.0
2,2, 5, 4, 0, 7,20.00,30.00,Thursday
148,23.325351397913474
596,-39.39204688734448
597,100.0
2,2, 5, 4, 0, 7,30.00,40.00,Thursday
148,23.60402578428748
596,-38.97535090806731
597,100.0
2,2, 5, 4, 0, 7,40.00,50.00,Thursday
148,23.845282655463277
596,-38.511431428718399
597,100.0
2,2, 5, 4, 0, 7,50.00,60.00,Thursday
148,23.987498705779758
596,-38.250062980525068
597,100.0
2,2, 5, 4, 0, 8, 0.00,10.00,Thursday
148,24.002581950066888
596,-38.21367434608758
597,100.0
2,2, 5, 4, 0, 8,10.00,20.00,Thursday
148,23.83248537363167
596,-38.49439127506794
597,100.0
2,2, 5, 4, 0, 8,20.00,30.00,Thursday
148,23.676726429977536
596,-38.76057076576493
597,100.0
2,2, 5, 4, 0, 8,30.00,40.00,Thursday
148,23.78200893364545
596,-38.50321802596261
597,100.0
2,2, 5, 4, 0, 8,40.00,50.00,Thursday
148,24.013534579155168
596,-37.973966195364528
597,100.0
2,2, 5, 4, 0, 8,50.00,60.00,Thursday
148,24.4333915666475
596,-37.13543707032765
597,100.0
2,2, 5, 4, 0, 9, 0.00,10.00,Thursday
148,24.802092031792328
596,-36.38440414606366
597,100.0
2,2, 5, 4, 0, 9,10.00,20.00,Thursday
148,25.02808175537726
596,-35.97602114935632
597,100.0
2,2, 5, 4, 0, 9,20.00,30.00,Thursday
148,25.258068396933206
596,-35.40640321318923
597,100.0
2,2, 5, 4, 0, 9,30.00,40.00,Thursday
148,25.495476377966754
596,-34.85962104280043
597,100.0
2,2, 5, 4, 0, 9,40.00,50.00,Thursday
148,25.691838495930989
596,-34.36305016248865
597,100.0
2,2, 5, 4, 0, 9,50.00,60.00,Thursday
148,25.795309431391574
596,-34.15468499976092
597,100.0
2,2, 5, 4, 0,10, 0.00,10.00,Thursday
148,27.570682524451159
596,0.039982911493621268
597,5.0330948814406188
2,2, 5, 4, 0,10,10.00,20.00,Thursday
148,27.63224143746933
596,0.08643743137894236
597,5.154714022546273
2,2, 5, 4, 0,10,20.00,30.00,Thursday
148,27.896467007906574
596,0.16105742011117106
597,5.537576994685452
2,2, 5, 4, 0,10,30.00,40.00,Thursday
148,28.14783288735177
596,0.22135197952197856
597,6.016426571306667
2,2, 5, 4, 0,10,40.00,50.00,Thursday
148,28.286557813646274
596,0.27021879987700916
597,6.516265799898562
2,2, 5, 4, 0,10,50.00,60.00,Thursday
148,28.5219632837947
596,0.3414335645319213
597,7.425001433786818
2,2, 5, 4, 0,11, 0.00,10.00,Thursday
148,28.694876662594
596,0.3986485242828641
597,8.311106254329588
2,2, 5, 4, 0,11,10.00,20.00,Thursday
148,28.75902809566085
596,0.4282502164264014
597,8.82446225580486
2,2, 5, 4, 0,11,20.00,30.00,Thursday
148,28.9050303950642
596,0.4741305731009234
597,9.694480893994268
2,2, 5, 4, 0,11,30.00,40.00,Thursday
148,29.055041118998046
596,0.5269703732645623
597,10.808936883009722
2,2, 5, 4, 0,11,40.00,50.00,Thursday
148,29.13817133716267
596,0.5504725503048655
597,11.343436812203194
2,2, 5, 4, 0,11,50.00,60.00,Thursday
148,29.385376079405014
596,0.6281397261534152
597,13.280175298214815
2,2, 5, 4, 0,12, 0.00,10.00,Thursday
148,29.561618522708885
596,0.691928977793656
597,15.066532852740807
2,2, 5, 4, 0,12,10.00,20.00,Thursday
148,29.871126912212053
596,0.775141126406944
597,17.660720879706007
2,2, 5, 4, 0,12,20.00,30.00,Thursday
148,30.10119922755998
596,0.854291752526158
597,20.401815728659629
2,2, 5, 4, 0,12,30.00,40.00,Thursday
148,30.252149417589807
596,0.8974493617484296
597,22.006446256479238
2,2, 5, 4, 0,12,40.00,50.00,Thursday
148,30.371312362003196
596,0.9439328450837577
597,23.819417846758584
2,2, 5, 4, 0,12,50.00,60.00,Thursday
148,30.411244530621546
596,0.9651259073158104
597,24.674532804772328
2,2, 5, 4, 0,13, 0.00,10.00,Thursday
148,30.5204264670518
596,0.9990081120498693
597,26.077904421817338
2,2, 5, 4, 0,13,10.00,20.00,Thursday
148,30.82793515996969
596,1.1056294480576117
597,30.77179308648313
2,2, 5, 4, 0,13,20.00,30.00,Thursday
148,31.027185620301894
596,1.1615079410239893
597,33.388261725240827
2,2, 5, 4, 0,13,30.00,40.00,Thursday
148,31.126629916695025
596,1.1975943840610475
597,35.129971063669518
2,2, 5, 4, 0,13,40.00,50.00,Thursday
148,31.23560129048427
596,1.2285498298535156
597,36.654208865408367
2,2, 5, 4, 0,13,50.00,60.00,Thursday
148,31.396079448224
596,1.2763345007729617
597,39.057458732326548
2,2, 5, 4, 0,14, 0.00,10.00,Thursday
148,31.535508039624128
596,1.3286865425302675
597,41.752992284618397
2,2, 5, 4, 0,14,10.00,20.00,Thursday
148,31.67543199365653
596,1.3606510475300747
597,43.42673738616208
2,2, 5, 4, 0,14,20.00,30.00,Thursday
148,31.700902071160284
596,1.369894428088123
597,43.914243454133139
2,2, 5, 4, 0,14,30.00,40.00,Thursday
148,31.689382151237824
596,1.37851213204034
597,44.370063648504949
2,2, 5, 4, 0,14,40.00,50.00,Thursday
148,31.77936191051366
596,1.38817275937099
597,44.88248872520242
2,2, 5, 4, 0,14,50.00,60.00,Thursday
148,31.927249263668189
596,1.465341536802489
597,49.021514995415348
2,2, 5, 4, 0,15, 0.00,10.00,Thursday
148,32.08601928563908
596,-22.65669430986705
597,100.0
2,2, 5, 4, 0,15,10.00,20.00,Thursday
148,31.912574991559568
596,-23.043682719602406
597,100.0
2,2, 5, 4, 0,15,20.00,30.00,Thursday
148,31.96252710327048
596,-22.994539103129474
597,100.0
2,2, 5, 4, 0,15,30.00,40.00,Thursday
148,31.91772717830103
596,-23.163177933887938
597,100.0
2,2, 5, 4, 0,15,40.00,50.00,Thursday
148,31.90976417685078
596,-23.089479724436218
597,100.0
2,2, 5, 4, 0,15,50.00,60.00,Thursday
148,32.02103516092142
596,-22.626079497152916
597,100.0
2,2, 5, 4, 0,16, 0.00,10.00,Thursday
148,32.369477327795468
596,-21.56863551312881
597,100.0
2,2, 5, 4, 0,16,10.00,20.00,Thursday
148,32.661304780236978
596,-20.640829413965123
597,100.0
2,2, 5, 4, 0,16,20.00,30.00,Thursday
148,32.723970050901517
596,-20.40961036121114
597,100.0
2,2, 5, 4, 0,16,30.00,40.00,Thursday
148,32.92671556936797
596,1.079561347415017
597,29.586738488402106
2,2, 5, 4, 0,16,40.00,50.00,Thursday
148,32.9248925755455
596,1.0729061512047505
597,29.287966903778128
2,2, 5, 4, 0,16,50.00,60.00,Thursday
148,32.74918282020125
596,0.999962318792075
597,26.11806350974713
2,2, 5, 4, 0,17, 0.00,10.00,Thursday
148,32.8179972314513
596,1.9055395243733735
597,72.32360854004847
2,2, 5, 4, 0,17,10.00,20.00,Thursday
148,33.117258833120477
596,1.9643225449966549
597,75.12447726144305
2,2, 5, 4, 0,17,20.00,30.00,Thursday
148,33.03751837689464
596,1.954668648256892
597,74.67302947284066
2,2, 5, 4, 0,17,30.00,40.00,Thursday
148,33.014481011551328
596,1.956373451781155
597,74.75300456914887
2,2, 5, 4, 0,17,40.00,50.00,Thursday
148,32.87065846652328
596,1.9282049931421793
597,73.41801187505357
2,2, 5, 4, 0,17,50.00,60.00,Thursday
148,32.77089156067285
596,1.8919856054704372
597,71.66097530297815
2,2, 5, 4, 0,18, 0.00,10.00,Thursday
148,32.683017679249278
596,1.8757601811537812
597,70.86004062534515
2,2, 5, 4, 0,18,10.00,20.00,Thursday
148,32.68308689837576
596,1.8773953027938806
597,70.94112532061803
2,2, 5, 4, 0,18,20.00,30.00,Thursday
148,32.74377421351832
596,1.8987091498428519
597,71.99042695392598
2,2, 5, 4, 0,18,30.00,40.00,Thursday
148,32.814004777889739
596,1.9189290619341575
597,72.97223939853179
2,2, 5, 4, 0,18,40.00,50.00,Thursday
148,32.91115374968916
596,1.9431594400085966
597,74.13031679836225
2,2, 5, 4, 0,18,50.00,60.00,Thursday
148,32.812366814677968
596,1.9177975059670245
597,72.91765767690171
2,2, 5, 4, 0,19, 0.00,10.00,Thursday
148,31.435160440190907
596,-19.167360346312554
597,100.0
2,2, 5, 4, 0,19,10.00,20.00,Thursday
148,30.988812552315719
596,-19.924622555880267
597,100.0
2,2, 5, 4, 0,19,20.00,30.00,Thursday
148,30.910601995185684
596,-20.06116851581657
597,100.0
2,2, 5, 4, 0,19,30.00,40.00,Thursday
148,30.641225964850816
596,-20.50455277622854
597,100.0
2,2, 5, 4, 0,19,40.00,50.00,Thursday
148,30.600582126667186
596,-20.646145235546798
597,100.0
2,2, 5, 4, 0,19,50.00,60.00,Thursday
148,30.504804367784069
596,-20.92686030536029
597,100.0
2,2, 5, 4, 0,20, 0.00,10.00,Thursday
148,30.34404815044026
596,-21.229891341325023
597,100.0
2,2, 5, 4, 0,20,10.00,20.00,Thursday
148,30.10592519646708
596,-21.639176557366459
597,100.0
2,2, 5, 4, 0,20,20.00,30.00,Thursday
148,29.88369945216529
596,-22.028981907302854
597,100.0
2,2, 5, 4, 0,20,30.00,40.00,Thursday
148,29.728541235262918
596,-22.304640126962928
597,100.0
2,2, 5, 4, 0,20,40.00,50.00,Thursday
148,29.59537314023166
596,-22.542641602986266
597,100.0
2,2, 5, 4, 0,20,50.00,60.00,Thursday
148,29.508627098913853
596,-22.696254713068528
597,100.0
2,2, 5, 4, 0,21, 0.00,10.00,Thursday
148,29.42588559267839
596,-22.867138402322298
597,100.0
2,2, 5, 4, 0,21,10.00,20.00,Thursday
148,29.341544091186927
596,-23.031131700192625
597,100.0
2,2, 5, 4, 0,21,20.00,30.00,Thursday
148,29.234739155718584
596,-23.25398680784679
597,100.0
2,2, 5, 4, 0,21,30.00,40.00,Thursday
148,29.191600499739264
596,-23.360937524431195
597,100.0
2,2, 5, 4, 0,21,40.00,50.00,Thursday
148,29.128699668929987
596,-23.507246434891799
597,100.0
2,2, 5, 4, 0,21,50.00,60.00,Thursday
148,28.993754269754157
596,-23.7658262084343
597,100.0
2,2, 5, 4, 0,22, 0.00,10.00,Thursday
148,28.747818017892123
596,-24.240240590692033
597,100.0
2,2, 5, 4, 0,22,10.00,20.00,Thursday
148,28.648650474312
596,-24.476638552817659
597,100.0
2,2, 5, 4, 0,22,20.00,30.00,Thursday
148,28.485155301521364
596,-24.86184273092473
597,100.0
2,2, 5, 4, 0,22,30.00,40.00,Thursday
148,28.48304050829084
596,-24.875438988574666
597,100.0
2,2, 5, 4, 0,22,40.00,50.00,Thursday
148,28.46686737711391
596,-24.996337067898656
597,100.0
2,2, 5, 4, 0,22,50.00,60.00,Thursday
148,28.541599259456409
596,-24.979805794510737
597,100.0
2,2, 5, 4, 0,23, 0.00,10.00,Thursday
148,28.483882781188919
596,-25.131489695124985
597,100.0
2,2, 5, 4, 0,23,10.00,20.00,Thursday
148,28.48120858182412
596,-25.235487052524609
597,100.0
2,2, 5, 4, 0,23,20.00,30.00,Thursday
148,28.39995808455199
596,-25.42696181538764
597,100.0
2,2, 5, 4, 0,23,30.00,40.00,Thursday
148,28.275059812488338
596,-25.731269189729045
597,100.0
2,2, 5, 4, 0,23,40.00,50.00,Thursday
148,28.167985257140857
596,-26.003050982100296
597,100.0
2,2, 5, 4, 0,23,50.00,60.00,Thursday
148,28.13071932912613
596,-26.113148815805848
597,100.0
2,2, 5, 4, 0,24, 0.00,10.00,Thursday
148,28.11120383081526
596,-26.20199121567132
597,100.0
2,2, 5, 4, 0,24,10.00,20.00,Thursday
148,27.90784737626115
596,-26.62672594184015
597,100.0
2,2, 5, 4, 0,24,20.00,30.00,Thursday
148,27.819293396650676
596,-26.892675380813974
597,100.0
2,2, 5, 4, 0,24,30.00,40.00,Thursday
148,27.836262821019245
596,-26.948246566962248
597,100.0
2,2, 5, 4, 0,24,40.00,50.00,Thursday
148,27.79133065594248
596,-27.14489469623735
597,100.0
2,2, 5, 4, 0,24,50.00,60.00,Thursday
148,27.609814730060074
596,-27.497338454399764
597,100.0
2,3, 5, 5, 0, 1, 0.00,10.00,Friday
148,27.466355452224304
596,-27.83744044765051
597,100.0
2,3, 5, 5, 0, 1,10.00,20.00,Friday
148,27.411525032131239
596,-27.997702305733289
597,100.0
2,3, 5, 5, 0, 1,20.00,30.00,Friday
148,27.447158384744684
596,-28.031342205787757
597,100.0
2,3, 5, 5, 0, 1,30.00,40.00,Friday
148,27.455175599149848
596,-28.054053150894288
597,100.0
2,3, 5, 5, 0, 1,40.00,50.00,Friday
148,27.238644556419716
596,-28.526178769423507
597,100.0
2,3, 5, 5, 0, 1,50.00,60.00,Friday
148,27.233370073405184
596,-28.615584248029177
597,100.0
2,3, 5, 5, 0, 2, 0.00,10.00,Friday
148,27.24967312645668
596,-28.66720472311309
597,100.0
2,3, 5, 5, 0, 2,10.00,20.00,Friday
148,27.232943996154419
596,-28.79786679392376
597,100.0
2,3, 5, 5, 0, 2,20.00,30.00,Friday
148,27.013689130909929
596,-29.253542675233424
597,100.0
2,3, 5, 5, 0, 2,30.00,40.00,Friday
148,26.232132587943455
596,-30.736771448615227
597,100.0
2,3, 5, 5, 0, 2,40.00,50.00,Friday
148,25.85911501802186
596,-31.56766405621242
597,100.0
2,3, 5, 5, 0, 2,50.00,60.00,Friday
148,25.401534373514069
596,-32.50665875311093
597,100.0