Program Version,EnergyPlus, Version 9.5.0-de239b2e5f, YMD=2021.12.09 19:15
1,5,Environment Title[],Latitude[deg],Longitude[deg],Time Zone[],Elevation[m]
2,8,Day of Simulation[],Month[],Day of Month[],DST Indicator[1=yes 0=no],Hour[],StartMinute[],EndMinute[],DayType
3,5,Cumulative Day of Simulation[],Month[],Day of Month[],DST Indicator[1=yes 0=no],DayType  ! When Daily Report Variables Requested
4,2,Cumulative Days of Simulation[],Month[]  ! When Monthly Report Variables Requested
5,1,Cumulative Days of Simulation[] ! When Run Period Report Variables Requested
6,1,Calendar Year of Simulation[] ! When Annual Report Variables Requested
148,1,THERMAL ZONE: JORGE,Zone Mean Air Temperature [C] !TimeStep
596,1,JORGE,Zone Thermal Comfort Fanger Model PMV [] !TimeStep
597,1,JORGE,Zone Thermal Comfort Fanger Model PPD [%] !TimeStep
End of Data Dictionary
1,RUN PERIOD 1,  18.85, -99.14,  -6.00,1280.00
2,1, 5, 3, 0, 1, 0.00,10.00,Wednesday
148,25.241319734377336
596,-1.555823589606162
597,53.938815829054529
2,1, 5, 3, 0, 1,10.00,20.00,Wednesday
148,25.198200759074309
596,-1.577973658949555
597,55.14584598497019
2,1, 5, 3, 0, 1,20.00,30.00,Wednesday
148,25.371944924662093
596,-1.5248047743239264
597,52.24910928422169
2,1, 5, 3, 0, 1,30.00,40.00,Wednesday
148,25.367640005256633
596,-1.532078167897049
597,52.645126378585029
2,1, 5, 3, 0, 1,40.00,50.00,Wednesday
148,25.185972657992886
596,-1.5942012727059614
597,56.029674753108668
2,1, 5, 3, 0, 1,50.00,60.00,Wednesday
148,24.93764714628411
596,-1.6772726086291939
597,60.53148025118299
2,1, 5, 3, 0, 2, 0.00,10.00,Wednesday
148,24.73901549511658
596,-1.7514374149251185
597,64.48510330441217
2,1, 5, 3, 0, 2,10.00,20.00,Wednesday
148,24.55397278368995
596,-1.8173174011805103
597,67.91128660560685
2,1, 5, 3, 0, 2,20.00,30.00,Wednesday
148,24.314741147148085
596,-1.903123525061044
597,72.2059325605167
2,1, 5, 3, 0, 2,30.00,40.00,Wednesday
148,24.08578205303227
596,-1.9852836280222193
597,76.09247787249378
2,1, 5, 3, 0, 2,40.00,50.00,Wednesday
148,24.12177966371083
596,-1.9825286867344232
597,75.9662237559303
2,1, 5, 3, 0, 2,50.00,60.00,Wednesday
148,24.268986616460294
596,-1.94548071334023
597,74.2401648788791
2,1, 5, 3, 0, 3, 0.00,10.00,Wednesday
148,24.343525912103784
596,-1.9285948490996894
597,73.43668174584247
2,1, 5, 3, 0, 3,10.00,20.00,Wednesday
148,24.64284205528299
596,-1.844937060531628
597,69.31670395920264
2,1, 5, 3, 0, 3,20.00,30.00,Wednesday
148,24.92110358186884
596,-1.7629488561754894
597,65.09046545157043
2,1, 5, 3, 0, 3,30.00,40.00,Wednesday
148,24.827807456536865
596,-1.7968319521189756
597,66.85636161542939
2,1, 5, 3, 0, 3,40.00,50.00,Wednesday
148,24.769212176147997
596,-1.8186400991952716
597,67.97904572881208
2,1, 5, 3, 0, 3,50.00,60.00,Wednesday
148,24.734757340655585
596,-1.8376520354145199
597,68.94798513066142
2,1, 5, 3, 0, 4, 0.00,10.00,Wednesday
148,24.66070890401968
596,-1.8665647806717088
597,70.40253744717177
2,1, 5, 3, 0, 4,10.00,20.00,Wednesday
148,24.483419921051384
596,-1.924584037459623
597,73.2443542276718
2,1, 5, 3, 0, 4,20.00,30.00,Wednesday
148,24.490736132563094
596,-1.936266596780138
597,73.80298745033089
2,1, 5, 3, 0, 4,30.00,40.00,Wednesday
148,24.01430780647178
596,-2.093631896466484
597,80.80718394533575
2,1, 5, 3, 0, 4,40.00,50.00,Wednesday
148,23.466208216274095
596,-2.2912396818134139
597,87.98858956096136
2,1, 5, 3, 0, 4,50.00,60.00,Wednesday
148,23.308993465172017
596,-2.3574875855629879
597,89.95424398409742
2,1, 5, 3, 0, 5, 0.00,10.00,Wednesday
148,23.29243923047802
596,-2.373930191806422
597,90.40731997334138
2,1, 5, 3, 0, 5,10.00,20.00,Wednesday
148,23.665393404940344
596,-2.2679565008129027
597,87.24426557780686
2,1, 5, 3, 0, 5,20.00,30.00,Wednesday
148,23.95735962980256
596,-2.1735262104592589
597,83.94307348386269
2,1, 5, 3, 0, 5,30.00,40.00,Wednesday
148,24.21299250040342
596,-2.0984099522951298
597,81.0032015844568
2,1, 5, 3, 0, 5,40.00,50.00,Wednesday
148,24.145977386813585
596,-2.114503966798224
597,81.65566407408767
2,1, 5, 3, 0, 5,50.00,60.00,Wednesday
148,23.666580083681475
596,-2.274932527871826
597,87.47019283566095
2,1, 5, 3, 0, 6, 0.00,10.00,Wednesday
148,23.32942172808978
596,-2.389673515342263
597,90.82824856257789
2,1, 5, 3, 0, 6,10.00,20.00,Wednesday
148,23.15242699879142
596,-2.4731171254145538
597,92.85221931897466
2,1, 5, 3, 0, 6,20.00,30.00,Wednesday
148,23.157466796225895
596,-2.4796807261865245
597,92.99692456964337
2,1, 5, 3, 0, 6,30.00,40.00,Wednesday
148,22.791063490353268
596,-2.612837433424303
597,95.50230897840211
2,1, 5, 3, 0, 6,40.00,50.00,Wednesday
148,22.55845125003263
596,-2.6986915183580968
597,96.71799271272448
2,1, 5, 3, 0, 6,50.00,60.00,Wednesday
148,22.45724149639121
596,-2.74300090744362
597,97.23730768382322
2,1, 5, 3, 0, 7, 0.00,10.00,Wednesday
148,22.634923216605267
596,-2.6928910675408836
597,96.6448020428729
2,1, 5, 3, 0, 7,10.00,20.00,Wednesday
148,22.952038572045156
596,-2.5910943465227009
597,95.14702693250689
2,1, 5, 3, 0, 7,20.00,30.00,Wednesday
148,23.254981607858235
596,-2.498127354863124
597,93.39256385025523
2,1, 5, 3, 0, 7,30.00,40.00,Wednesday
148,22.49703128117722
596,-2.7459881237000145
597,97.26986628976153
2,1, 5, 3, 0, 7,40.00,50.00,Wednesday
148,22.27760014349313
596,-2.829020633903823
597,98.06090087562174
2,1, 5, 3, 0, 7,50.00,60.00,Wednesday
148,23.19422204422476
596,-2.5310801038918577
597,94.05941818494437
2,1, 5, 3, 0, 8, 0.00,10.00,Wednesday
148,23.416893346331358
596,-2.4357540763127587
597,91.988590986571
2,1, 5, 3, 0, 8,10.00,20.00,Wednesday
148,22.90249619257492
596,-2.5963928304902788
597,95.23545418036217
2,1, 5, 3, 0, 8,20.00,30.00,Wednesday
148,22.977106055188398
596,-2.5644474566432886
597,94.6838720357924
2,1, 5, 3, 0, 8,30.00,40.00,Wednesday
148,23.261377110505653
596,-2.4566953665127739
597,92.48104264771439
2,1, 5, 3, 0, 8,40.00,50.00,Wednesday
148,23.67542837438443
596,-2.3015777104626258
597,88.31016272155748
2,1, 5, 3, 0, 8,50.00,60.00,Wednesday
148,24.240428074693879
596,-2.0987545417073178
597,81.0172975159751
2,1, 5, 3, 0, 9, 0.00,10.00,Wednesday
148,24.80014088683813
596,-1.8843582044502776
597,71.28548883813227
2,1, 5, 3, 0, 9,10.00,20.00,Wednesday
148,25.05681230628091
596,-1.7862068419362172
597,66.30530941849178
2,1, 5, 3, 0, 9,20.00,30.00,Wednesday
148,25.337820072818116
596,-1.6854894594230637
597,60.97337495853418
2,1, 5, 3, 0, 9,30.00,40.00,Wednesday
148,25.5867823081863
596,-1.5910508384224987
597,55.85814249384797
2,1, 5, 3, 0, 9,40.00,50.00,Wednesday
148,25.77783876551867
596,-1.5062014638646717
597,51.23711795036827
2,1, 5, 3, 0, 9,50.00,60.00,Wednesday
148,25.8416869679028
596,-1.4646501291375967
597,48.984134479366257
2,1, 5, 3, 0,10, 0.00,10.00,Wednesday
148,27.999996479755365
596,0.2171905589136845
597,5.978492466217958
2,1, 5, 3, 0,10,10.00,20.00,Wednesday
148,28.156822403685234
596,0.2977486236503666
597,6.842128167710868
2,1, 5, 3, 0,10,20.00,30.00,Wednesday
148,28.497066952439757
596,0.3805493969073533
597,8.015702293613373
2,1, 5, 3, 0,10,30.00,40.00,Wednesday
148,28.97699998453978
596,0.5094445899650768
597,10.425921822848509
2,1, 5, 3, 0,10,40.00,50.00,Wednesday
148,28.995859467437375
596,0.5376043628446128
597,11.04781711355777
2,1, 5, 3, 0,10,50.00,60.00,Wednesday
148,28.860913199212705
596,0.5151469267090199
597,10.549084343410485
2,1, 5, 3, 0,11, 0.00,10.00,Wednesday
148,28.580754661844009
596,0.4462171055976397
597,9.154378317319669
2,1, 5, 3, 0,11,10.00,20.00,Wednesday
148,28.98248232157463
596,0.538008909605298
597,11.057001492476914
2,1, 5, 3, 0,11,20.00,30.00,Wednesday
148,29.42481097156549
596,0.6574443386813115
597,14.078932766069727
2,1, 5, 3, 0,11,30.00,40.00,Wednesday
148,29.46623207546955
596,0.6845189856865367
597,14.849979226496771
2,1, 5, 3, 0,11,40.00,50.00,Wednesday
148,29.404202367107655
596,0.6764590578689117
597,14.617127367856569
2,1, 5, 3, 0,11,50.00,60.00,Wednesday
148,29.549775162938226
596,0.7170263731926173
597,15.817606689901198
2,1, 5, 3, 0,12, 0.00,10.00,Wednesday
148,29.64720586737414
596,0.7517331434673379
597,16.900930651749847
2,1, 5, 3, 0,12,10.00,20.00,Wednesday
148,29.721134559817874
596,0.7661511588037323
597,17.366151594295475
2,1, 5, 3, 0,12,20.00,30.00,Wednesday
148,29.923878982043165
596,0.8271655821206195
597,19.43272419095547
2,1, 5, 3, 0,12,30.00,40.00,Wednesday
148,30.027310073509768
596,0.8531948148717192
597,20.362032335634795
2,1, 5, 3, 0,12,40.00,50.00,Wednesday
148,30.222976661479298
596,0.9047790856367466
597,22.286543633562944
2,1, 5, 3, 0,12,50.00,60.00,Wednesday
148,30.41909474523868
596,0.957367748159996
597,24.359453831072444
2,1, 5, 3, 0,13, 0.00,10.00,Wednesday
148,30.698671006000774
596,1.0375906524309407
597,27.728934256803855
2,1, 5, 3, 0,13,10.00,20.00,Wednesday
148,30.693033954653278
596,1.0494732566233028
597,28.24848925564544
2,1, 5, 3, 0,13,20.00,30.00,Wednesday
148,30.631562960958037
596,1.0545270094182676
597,28.47101071487903
2,1, 5, 3, 0,13,30.00,40.00,Wednesday
148,30.74400268238191
596,1.0584112801772057
597,28.642663286602216
2,1, 5, 3, 0,13,40.00,50.00,Wednesday
148,30.81628477260176
596,1.054339197839279
597,28.462724732274795
2,1, 5, 3, 0,13,50.00,60.00,Wednesday
148,30.793439395552438
596,1.0558423511326503
597,28.529077275945043
2,1, 5, 3, 0,14, 0.00,10.00,Wednesday
148,30.784280500164316
596,1.083899001523403
597,29.78230236470435
2,1, 5, 3, 0,14,10.00,20.00,Wednesday
148,30.99787154771742
596,1.1611010768028936
597,33.36884982197934
2,1, 5, 3, 0,14,20.00,30.00,Wednesday
148,31.04498279812018
596,1.1866496120372264
597,34.59761073495038
2,1, 5, 3, 0,14,30.00,40.00,Wednesday
148,31.008331003908049
596,1.1898065909387164
597,34.75080725042939
2,1, 5, 3, 0,14,40.00,50.00,Wednesday
148,31.575762112686435
596,1.3131104963672725
597,40.9447297073884
2,1, 5, 3, 0,14,50.00,60.00,Wednesday
148,32.10353887213644
596,1.4336823969746742
597,47.31472578221003
2,1, 5, 3, 0,15, 0.00,10.00,Wednesday
148,31.402420880942178
596,1.259974993027343
597,38.22814705479421
2,1, 5, 3, 0,15,10.00,20.00,Wednesday
148,31.172727152257758
596,1.2298485650588554
597,36.71873914805906
2,1, 5, 3, 0,15,20.00,30.00,Wednesday
148,31.629118435090633
596,1.345240539391724
597,42.6173781961514
2,1, 5, 3, 0,15,30.00,40.00,Wednesday
148,31.60401716761929
596,1.3659521377629374
597,43.70614095612596
2,1, 5, 3, 0,15,40.00,50.00,Wednesday
148,31.751404162885828
596,1.389670372310103
597,44.96205794718737
2,1, 5, 3, 0,15,50.00,60.00,Wednesday
148,31.831957029142126
596,1.4215632889249324
597,46.664323470879327
2,1, 5, 3, 0,16, 0.00,10.00,Wednesday
148,31.85311949223723
596,1.4470589892516153
597,48.034605435924479
2,1, 5, 3, 0,16,10.00,20.00,Wednesday
148,31.97771389105108
596,1.4715208389415429
597,49.35578081433456
2,1, 5, 3, 0,16,20.00,30.00,Wednesday
148,32.02457359189802
596,1.4657703275662835
597,49.04469943881058
2,1, 5, 3, 0,16,30.00,40.00,Wednesday
148,31.750707344812569
596,1.4216731372084775
597,46.67021056832863
2,1, 5, 3, 0,16,40.00,50.00,Wednesday
148,32.23614521090286
596,1.4908375509448393
597,50.40266764964825
2,1, 5, 3, 0,16,50.00,60.00,Wednesday
148,31.76495024236866
596,1.3694729172983094
597,43.89198034271584
2,1, 5, 3, 0,17, 0.00,10.00,Wednesday
148,31.56224344812231
596,1.322715952875051
597,41.442574306321947
2,1, 5, 3, 0,17,10.00,20.00,Wednesday
148,31.17673217028436
596,1.2155879911181378
597,36.01270333098387
2,1, 5, 3, 0,17,20.00,30.00,Wednesday
148,30.59327688754443
596,1.038645737210919
597,27.774858595107106
2,1, 5, 3, 0,17,30.00,40.00,Wednesday
148,30.549939456728518
596,1.013943128619897
597,26.71040959607366
2,1, 5, 3, 0,17,40.00,50.00,Wednesday
148,30.442465066240208
596,0.9877700717210769
597,25.607544313252747
2,1, 5, 3, 0,17,50.00,60.00,Wednesday
148,30.343276487195895
596,0.9691221280246971
597,24.837746442470747
2,1, 5, 3, 0,18, 0.00,10.00,Wednesday
148,29.978990211606015
596,0.8951066992277792
597,21.9173845312973
2,1, 5, 3, 0,18,10.00,20.00,Wednesday
148,29.91016772671011
596,0.8881436726944677
597,21.653989829665805
2,1, 5, 3, 0,18,20.00,30.00,Wednesday
148,29.99002945673292
596,0.9195995702521184
597,22.859535054641854
2,1, 5, 3, 0,18,30.00,40.00,Wednesday
148,29.961492452204337
596,0.923459528489889
597,23.010221199115337
2,1, 5, 3, 0,18,40.00,50.00,Wednesday
148,30.101406744644938
596,0.9591003969212119
597,24.429616944612805
2,1, 5, 3, 0,18,50.00,60.00,Wednesday
148,30.35014437178565
596,1.024366678003306
597,27.156809176096503
2,1, 5, 3, 0,19, 0.00,10.00,Wednesday
148,28.81026210876882
596,-0.1669565479970654
597,5.577727002967137
2,1, 5, 3, 0,19,10.00,20.00,Wednesday
148,28.609421886007959
596,-0.25091573788663326
597,6.306831060779771
2,1, 5, 3, 0,19,20.00,30.00,Wednesday
148,28.37995480049058
596,-0.32771245238387305
597,7.233211333704247
2,1, 5, 3, 0,19,30.00,40.00,Wednesday
148,28.147306306041508
596,-0.38721177423492417
597,8.122814109729959
2,1, 5, 3, 0,19,40.00,50.00,Wednesday
148,27.930017814109847
596,-0.44820544138779697
597,9.191741612588658
2,1, 5, 3, 0,19,50.00,60.00,Wednesday
148,27.780693419813028
596,-0.5066493526636883
597,10.366062184080605
2,1, 5, 3, 0,20, 0.00,10.00,Wednesday
148,27.693714542786723
596,-0.5389838088544805
597,11.079163648368365
2,1, 5, 3, 0,20,10.00,20.00,Wednesday
148,27.59653626513131
596,-0.570789289427129
597,11.8247854548613
2,1, 5, 3, 0,20,20.00,30.00,Wednesday
148,27.418314399620756
596,-0.6212435640923997
597,13.097620547043562
2,1, 5, 3, 0,20,30.00,40.00,Wednesday
148,27.24545240346298
596,-0.6649382290822682
597,14.289171155025329
2,1, 5, 3, 0,20,40.00,50.00,Wednesday
148,26.949769121066756
596,-0.745777053769226
597,16.711344131845097
2,1, 5, 3, 0,20,50.00,60.00,Wednesday
148,26.764167627276444
596,-0.8190186615123138
597,19.14768607082874
2,1, 5, 3, 0,21, 0.00,10.00,Wednesday
148,26.575483541510324
596,-0.8964638963000245
597,21.968954287269427
2,1, 5, 3, 0,21,10.00,20.00,Wednesday
148,26.5761287042062
596,-0.9211197556448916
597,22.918809086823076
2,1, 5, 3, 0,21,20.00,30.00,Wednesday
148,26.44403442991687
596,-0.9749032455993735
597,25.074957210325495
2,1, 5, 3, 0,21,30.00,40.00,Wednesday
148,26.21426539685681
596,-1.0528024361546707
597,28.39497265489412
2,1, 5, 3, 0,21,40.00,50.00,Wednesday
148,26.36471576868092
596,-1.0114132855949203
597,26.602678637901549
2,1, 5, 3, 0,21,50.00,60.00,Wednesday
148,26.20725810732944
596,-1.071532668937378
597,29.226500946767389
2,1, 5, 3, 0,22, 0.00,10.00,Wednesday
148,26.273098405371156
596,-1.0560857662488757
597,28.539829799517066
2,1, 5, 3, 0,22,10.00,20.00,Wednesday
148,26.200827536178595
596,-1.0757058141888639
597,29.413462772204427
2,1, 5, 3, 0,22,20.00,30.00,Wednesday
148,25.789240181992754
596,-1.2271399368317895
597,36.58420728939801
2,1, 5, 3, 0,22,30.00,40.00,Wednesday
148,25.688580539030803
596,-1.2740894153238936
597,38.943261725014917
2,1, 5, 3, 0,22,40.00,50.00,Wednesday
148,25.820859343676717
596,-1.2380690342901649
597,37.12824243129935
2,1, 5, 3, 0,22,50.00,60.00,Wednesday
148,25.764004441703439
596,-1.2583769796659208
597,38.147494575998049
2,1, 5, 3, 0,23, 0.00,10.00,Wednesday
148,25.89770161444038
596,-1.2379598253582254
597,37.12279035150769
2,1, 5, 3, 0,23,10.00,20.00,Wednesday
148,25.974570051755216
596,-1.2154209052049144
597,36.00446428271948
2,1, 5, 3, 0,23,20.00,30.00,Wednesday
148,25.963628794812448
596,-1.2209025785602104
597,36.2751722325916
2,1, 5, 3, 0,23,30.00,40.00,Wednesday
148,25.989656757946116
596,-1.2293962802006713
597,36.69626127644034
2,1, 5, 3, 0,23,40.00,50.00,Wednesday
148,25.969106932239467
596,-1.2443760531393405
597,37.44364433437164
2,1, 5, 3, 0,23,50.00,60.00,Wednesday
148,25.986951517247769
596,-1.2449297885029343
597,37.471385441010067
2,1, 5, 3, 0,24, 0.00,10.00,Wednesday
148,26.08572767062097
596,-1.2218390441611347
597,36.321502047284088
2,1, 5, 3, 0,24,10.00,20.00,Wednesday
148,26.141115707172536
596,-1.2148309222670764
597,35.975378316987619
2,1, 5, 3, 0,24,20.00,30.00,Wednesday
148,26.0332175490477
596,-1.2486594826099696
597,37.65844402185878
2,1, 5, 3, 0,24,30.00,40.00,Wednesday
148,26.015240436275638
596,-1.2577226258095105
597,38.114487597471157
2,1, 5, 3, 0,24,40.00,50.00,Wednesday
148,25.943510610883249
596,-1.2867340358950073
597,39.58800045324107
2,1, 5, 3, 0,24,50.00,60.00,Wednesday
148,25.959809857092954
596,-1.2870935085579374
597,39.60638475511714
2,2, 5, 4, 0, 1, 0.00,10.00,Thursday
148,26.151860791926724
596,-1.2386511023671816
597,37.15730657694261
2,2, 5, 4, 0, 1,10.00,20.00,Thursday
148,26.23497121802925
596,-1.2209815729771743
597,36.27907939364743
2,2, 5, 4, 0, 1,20.00,30.00,Thursday
148,26.023554970800747
596,-1.283928194337093
597,39.44460657924144
2,2, 5, 4, 0, 1,30.00,40.00,Thursday
148,25.7584144764145
596,-1.3679479101520944
597,43.811458795309849
2,2, 5, 4, 0, 1,40.00,50.00,Thursday
148,25.72985435706748
596,-1.3812453959412577
597,44.514891537636497
2,2, 5, 4, 0, 1,50.00,60.00,Thursday
148,25.844758067881398
596,-1.3530160439122597
597,43.025201708151218
2,2, 5, 4, 0, 2, 0.00,10.00,Thursday
148,26.059919418748387
596,-1.2981269176360793
597,40.172106181709718
2,2, 5, 4, 0, 2,10.00,20.00,Thursday
148,26.027197739813564
596,-1.312079196359727
597,40.891394306692209
2,2, 5, 4, 0, 2,20.00,30.00,Thursday
148,26.02669045537384
596,-1.3151212964425434
597,41.04878696125133
2,2, 5, 4, 0, 2,30.00,40.00,Thursday
148,25.93153199381688
596,-1.3483167441141709
597,42.77858928045413
2,2, 5, 4, 0, 2,40.00,50.00,Thursday
148,25.8161358505501
596,-1.3874640602354065
597,44.844847195142708
2,2, 5, 4, 0, 2,50.00,60.00,Thursday
148,25.762182679947605
596,-1.4117880258005602
597,46.14106778494446
2,2, 5, 4, 0, 3, 0.00,10.00,Thursday
148,25.855156829977994
596,-1.39457952994559
597,45.22312625401908
2,2, 5, 4, 0, 3,10.00,20.00,Thursday
148,25.653816961099215
596,-1.4623525505821007
597,48.85994834843482
2,2, 5, 4, 0, 3,20.00,30.00,Thursday
148,25.666143903995875
596,-1.470586949052578
597,49.30524157625373
2,2, 5, 4, 0, 3,30.00,40.00,Thursday
148,25.374659090354226
596,-1.5627847801366133
597,54.3181794239152
2,2, 5, 4, 0, 3,40.00,50.00,Thursday
148,25.185059014680229
596,-1.6254667227106068
597,57.72972732381256
2,2, 5, 4, 0, 3,50.00,60.00,Thursday
148,25.30549167169999
596,-1.6055237568036128
597,56.64586118045544
2,2, 5, 4, 0, 4, 0.00,10.00,Thursday
148,25.27415646617677
596,-1.6247832891541572
597,57.69262132906751
2,2, 5, 4, 0, 4,10.00,20.00,Thursday
148,25.139903100504666
596,-1.6702688099780326
597,60.15420542963567
2,2, 5, 4, 0, 4,20.00,30.00,Thursday
148,24.996547091151677
596,-1.7233617594978557
597,62.99847134558807
2,2, 5, 4, 0, 4,30.00,40.00,Thursday
148,24.848200146401909
596,-1.7779732123326558
597,65.87655301974042
2,2, 5, 4, 0, 4,40.00,50.00,Thursday
148,24.78998776637684
596,-1.8043175823703848
597,67.24301943292201
2,2, 5, 4, 0, 4,50.00,60.00,Thursday
148,24.74114664541733
596,-1.8200341648924459
597,68.05041289337489
2,2, 5, 4, 0, 5, 0.00,10.00,Thursday
148,24.680299533247678
596,-1.8524103525803744
597,69.69342022348119
2,2, 5, 4, 0, 5,10.00,20.00,Thursday
148,24.566181031772464
596,-1.898514504500491
597,71.98090991948024
2,2, 5, 4, 0, 5,20.00,30.00,Thursday
148,24.311200586633036
596,-1.9807632219599836
597,75.88515945135137
2,2, 5, 4, 0, 5,30.00,40.00,Thursday
148,24.25572618033757
596,-2.006920125824119
597,77.07355079055863
2,2, 5, 4, 0, 5,40.00,50.00,Thursday
148,24.274300581530157
596,-2.0147739513745894
597,77.42498004545746
2,2, 5, 4, 0, 5,50.00,60.00,Thursday
148,24.21118260989408
596,-2.046178575475029
597,78.80442111780268
2,2, 5, 4, 0, 6, 0.00,10.00,Thursday
148,24.41022358306651
596,-1.989239642597664
597,76.27325289575171
2,2, 5, 4, 0, 6,10.00,20.00,Thursday
148,23.740214417972696
596,-2.2059558350992329
597,85.12737329098101
2,2, 5, 4, 0, 6,20.00,30.00,Thursday
148,23.50124490297532
596,-2.296094837184914
597,88.14029668040746
2,2, 5, 4, 0, 6,30.00,40.00,Thursday
148,23.157401513364264
596,-2.4195117519912485
597,91.59171552658433
2,2, 5, 4, 0, 6,40.00,50.00,Thursday
148,22.95087053640874
596,-2.502243001563043
597,93.47862919326714
2,2, 5, 4, 0, 6,50.00,60.00,Thursday
148,23.151731106153706
596,-2.4419667345547304
597,92.13693794455689
2,2, 5, 4, 0, 7, 0.00,10.00,Thursday
148,23.621530481162009
596,-2.297633281261257
597,88.18811533654459
2,2, 5, 4, 0, 7,10.00,20.00,Thursday
148,23.882465654066068
596,-2.2114046164272636
597,85.32120751463785
2,2, 5, 4, 0, 7,20.00,30.00,Thursday
148,23.56321384971041
596,-2.308728078023969
597,88.52937030331175
2,2, 5, 4, 0, 7,30.00,40.00,Thursday
148,23.890716708359386
596,-2.219828671598509
597,85.61794500936129
2,2, 5, 4, 0, 7,40.00,50.00,Thursday
148,24.168476552345955
596,-2.1251376291815435
597,82.08010120155734
2,2, 5, 4, 0, 7,50.00,60.00,Thursday
148,24.324013586752508
596,-2.072095502463936
597,79.91072477757803
2,2, 5, 4, 0, 8, 0.00,10.00,Thursday
148,24.339160812331877
596,-2.060354020792478
597,79.41319252271747
2,2, 5, 4, 0, 8,10.00,20.00,Thursday
148,24.16677897291022
596,-2.10267890755238
597,81.17744192768504
2,2, 5, 4, 0, 8,20.00,30.00,Thursday
148,23.994157979056433
596,-2.1480757125322795
597,82.97734067184757
2,2, 5, 4, 0, 8,30.00,40.00,Thursday
148,24.106526668152435
596,-2.0981949623137039
597,80.99440432814066
2,2, 5, 4, 0, 8,40.00,50.00,Thursday
148,24.359850345397299
596,-1.9983072610112883
597,76.68526427428199
2,2, 5, 4, 0, 8,50.00,60.00,Thursday
148,24.81025573076152
596,-1.8458962798203896
597,69.3651441518962
2,2, 5, 4, 0, 9, 0.00,10.00,Thursday
148,25.163841787478387
596,-1.7210935311800364
597,62.877782588568717
2,2, 5, 4, 0, 9,10.00,20.00,Thursday
148,25.38994397773835
596,-1.6509009602353966
597,59.108251972293107
2,2, 5, 4, 0, 9,20.00,30.00,Thursday
148,25.662342540236414
596,-1.541625511944448
597,53.16516782242926
2,2, 5, 4, 0, 9,30.00,40.00,Thursday
148,25.933222166309958
596,-1.4392527267776907
597,47.61425798791204
2,2, 5, 4, 0, 9,40.00,50.00,Thursday
148,26.145900634983908
596,-1.3500567701729405
597,42.86985549015344
2,2, 5, 4, 0, 9,50.00,60.00,Thursday
148,26.224259319638358
596,-1.3227055182915147
597,41.442032441023567
2,2, 5, 4, 0,10, 0.00,10.00,Thursday
148,28.024455725322505
596,0.2112902955502131
597,5.925951082950007
2,2, 5, 4, 0,10,10.00,20.00,Thursday
148,28.06831308838376
596,0.2528787273165566
597,6.3274130809746229
2,2, 5, 4, 0,10,20.00,30.00,Thursday
148,28.30722111855442
596,0.32092268872717047
597,7.141260209257396
2,2, 5, 4, 0,10,30.00,40.00,Thursday
148,28.565607421541288
596,0.3807861698551453
597,8.019476439566603
2,2, 5, 4, 0,10,40.00,50.00,Thursday
148,28.68245106605243
596,0.42318688994478639
597,8.73399065729501
2,2, 5, 4, 0,10,50.00,60.00,Thursday
148,28.90756932818507
596,0.4900502845224772
597,10.01755175145091
2,2, 5, 4, 0,11, 0.00,10.00,Thursday
148,29.068954968765526
596,0.5416339649023794
597,11.139617131002098
2,2, 5, 4, 0,11,10.00,20.00,Thursday
148,29.124403607703888
596,0.5669014600619271
597,11.731289101777805
2,2, 5, 4, 0,11,20.00,30.00,Thursday
148,29.246922032399675
596,0.6046321399791331
597,12.66635694810789
2,2, 5, 4, 0,11,30.00,40.00,Thursday
148,29.386695906408194
596,0.6520429546947946
597,13.928907927271482
2,2, 5, 4, 0,11,40.00,50.00,Thursday
148,29.449837207135624
596,0.6687442931288301
597,14.396880360422003
2,2, 5, 4, 0,11,50.00,60.00,Thursday
148,29.68674484225962
596,0.7405082593900988
597,16.544902300804709
2,2, 5, 4, 0,12, 0.00,10.00,Thursday
148,29.82550477757754
596,0.7922443374810431
597,18.230630842693928
2,2, 5, 4, 0,12,10.00,20.00,Thursday
148,30.124021865647508
596,0.8687459554495711
597,20.930693602850839
2,2, 5, 4, 0,12,20.00,30.00,Thursday
148,30.34161041142537
596,0.9410582012830968
597,23.704792880216446
2,2, 5, 4, 0,12,30.00,40.00,Thursday
148,30.421347855144114
596,0.9627939651905745
597,24.57957925059003
2,2, 5, 4, 0,12,40.00,50.00,Thursday
148,30.54325396097218
596,1.0031665982392597
597,26.25317249520795
2,2, 5, 4, 0,12,50.00,60.00,Thursday
148,30.54400472158197
596,1.0096141909912464
597,26.526212077034829
2,2, 5, 4, 0,13, 0.00,10.00,Thursday
148,30.581198578414559
596,1.020395762509764
597,26.9862731130315
2,2, 5, 4, 0,13,10.00,20.00,Thursday
148,30.86064133647399
596,1.112972616133509
597,31.109791470477064
2,2, 5, 4, 0,13,20.00,30.00,Thursday
148,31.016921602147769
596,1.1519426633206334
597,32.9332584636699
2,2, 5, 4, 0,13,30.00,40.00,Thursday
148,31.064853208720753
596,1.169179848869184
597,33.75525303683662
2,2, 5, 4, 0,13,40.00,50.00,Thursday
148,31.135745218208368
596,1.1839309717908864
597,34.46592169585466
2,2, 5, 4, 0,13,50.00,60.00,Thursday
148,31.259655923393106
596,1.2160045405340665
597,36.0332468810618
2,2, 5, 4, 0,14, 0.00,10.00,Thursday
148,31.332814289255724
596,1.246778703324973
597,37.564070510496588
2,2, 5, 4, 0,14,10.00,20.00,Thursday
148,31.456927447664968
596,1.2678926758053375
597,38.628696752913629
2,2, 5, 4, 0,14,20.00,30.00,Thursday
148,31.452295003312476
596,1.263629247893295
597,38.4128195139336
2,2, 5, 4, 0,14,30.00,40.00,Thursday
148,31.358915536717583
596,1.2481386701397886
597,37.63230158447327
2,2, 5, 4, 0,14,40.00,50.00,Thursday
148,31.47411695266014
596,1.2550548897672316
597,37.98003352345254
2,2, 5, 4, 0,14,50.00,60.00,Thursday
148,31.51790300186857
596,1.3034289645926065
597,40.444940046222
2,2, 5, 4, 0,15, 0.00,10.00,Thursday
148,31.78774951248882
596,1.3706371591581653
597,43.95347995697197
2,2, 5, 4, 0,15,10.00,20.00,Thursday
148,31.567208142706684
596,1.32552658775626
597,41.58861161466587
2,2, 5, 4, 0,15,20.00,30.00,Thursday
148,31.675800527782827
596,1.3275873676576462
597,41.69579022242899
2,2, 5, 4, 0,15,30.00,40.00,Thursday
148,31.586381081010875
596,1.2954243149274714
597,40.033277569236549
2,2, 5, 4, 0,15,40.00,50.00,Thursday
148,31.489524067968035
596,1.29014794046464
597,39.762716737068227
2,2, 5, 4, 0,15,50.00,60.00,Thursday
148,31.692989262240965
596,1.3420160767309542
597,42.44859039303146
2,2, 5, 4, 0,16, 0.00,10.00,Thursday
148,31.99663962657109
596,1.4263918702567449
597,46.92324533014357
2,2, 5, 4, 0,16,10.00,20.00,Thursday
148,32.220490228221958
596,1.49995597365994
597,50.89774433043457
2,2, 5, 4, 0,16,20.00,30.00,Thursday
148,32.20222666672949
596,1.5045634571846387
597,51.148089883599528
2,2, 5, 4, 0,16,30.00,40.00,Thursday
148,32.3144213576141
596,1.525228824552557
597,52.272193080706148
2,2, 5, 4, 0,16,40.00,50.00,Thursday
148,32.35263278360894
596,1.5170263330503562
597,51.82579504670923
2,2, 5, 4, 0,16,50.00,60.00,Thursday
148,32.20700653453567
596,1.4708339751281952
597,49.318609151665338
2,2, 5, 4, 0,17, 0.00,10.00,Thursday
148,32.04659383689654
596,1.457989326001027
597,48.6242465986439
2,2, 5, 4, 0,17,10.00,20.00,Thursday
148,32.456496924365698
596,1.544656820903642
597,53.330321186549
2,2, 5, 4, 0,17,20.00,30.00,Thursday
148,32.34805453305359
596,1.5217446065110705
597,52.082543256972069
2,2, 5, 4, 0,17,30.00,40.00,Thursday
148,32.40267882374093
596,1.5377012980494176
597,52.95139201907145
2,2, 5, 4, 0,17,40.00,50.00,Thursday
148,32.122024045547998
596,1.4702834869880448
597,49.28882072766737
2,2, 5, 4, 0,17,50.00,60.00,Thursday
148,32.23803575667647
596,1.4707602087849799
597,49.314617303995508
2,2, 5, 4, 0,18, 0.00,10.00,Thursday
148,31.925849418180449
596,1.4018759444450229
597,45.61181505964307
2,2, 5, 4, 0,18,10.00,20.00,Thursday
148,31.994886162340298
596,1.413171173056438
597,46.21502859429527
2,2, 5, 4, 0,18,20.00,30.00,Thursday
148,31.963013084045568
596,1.4177822399924052
597,46.46178040991666
2,2, 5, 4, 0,18,30.00,40.00,Thursday
148,32.088270122094559
596,1.4512868103551882
597,48.262533787834737
2,2, 5, 4, 0,18,40.00,50.00,Thursday
148,32.11020376601805
596,1.4634814270737822
597,48.92095911939894
2,2, 5, 4, 0,18,50.00,60.00,Thursday
148,31.973287226985048
596,1.4218940146839885
597,46.682048517274527
2,2, 5, 4, 0,19, 0.00,10.00,Thursday
148,30.4412976948626
596,0.34442791771488487
597,7.467918541698083
2,2, 5, 4, 0,19,10.00,20.00,Thursday
148,29.93935422379096
596,0.18991996224916017
597,5.747843713124354
2,2, 5, 4, 0,19,20.00,30.00,Thursday
148,30.00179280312596
596,0.19193002743056609
597,5.7637826676760259
2,2, 5, 4, 0,19,30.00,40.00,Thursday
148,29.597807245804618
596,0.08726367447499527
597,5.157686945335286
2,2, 5, 4, 0,19,40.00,50.00,Thursday
148,29.45659264988401
596,0.030293926052059485
597,5.01899808621738
2,2, 5, 4, 0,19,50.00,60.00,Thursday
148,29.436539195765588
596,-0.005402264805343395
597,5.000604133810413
2,2, 5, 4, 0,20, 0.00,10.00,Thursday
148,29.382485280864115
596,-0.036771102031305947
597,5.0279911336924389
2,2, 5, 4, 0,20,10.00,20.00,Thursday
148,29.121175682640634
596,-0.11317329101195108
597,5.265287473226195
2,2, 5, 4, 0,20,20.00,30.00,Thursday
148,28.848522346096354
596,-0.19223228115180447
597,5.766194013114145
2,2, 5, 4, 0,20,30.00,40.00,Thursday
148,28.709976683545454
596,-0.23482610017008533
597,6.144233057559774
2,2, 5, 4, 0,20,40.00,50.00,Thursday
148,28.635438655215567
596,-0.26001987702139847
597,6.403655486798328
2,2, 5, 4, 0,20,50.00,60.00,Thursday
148,28.46267327779053
596,-0.3029453656656432
597,6.907231456420362
2,2, 5, 4, 0,21, 0.00,10.00,Thursday
148,28.337980032133748
596,-0.33964279050142368
597,7.399516888132979
2,2, 5, 4, 0,21,10.00,20.00,Thursday
148,28.354194571380519
596,-0.34195263829700509
597,7.432413853596586
2,2, 5, 4, 0,21,20.00,30.00,Thursday
148,28.369787449411
596,-0.3487648098241966
597,7.530753546346972
2,2, 5, 4, 0,21,30.00,40.00,Thursday
148,28.31599578137667
596,-0.3630181375411824
597,7.742898861232291
2,2, 5, 4, 0,21,40.00,50.00,Thursday
148,28.309436078688337
596,-0.37124528082046168
597,7.869289203084691
2,2, 5, 4, 0,21,50.00,60.00,Thursday
148,28.21002962961305
596,-0.40241707186771766
597,8.374376011679616
2,2, 5, 4, 0,22, 0.00,10.00,Thursday
148,28.061071960094205
596,-0.4504202475342445
597,9.233560751897585
2,2, 5, 4, 0,22,10.00,20.00,Thursday
148,27.964954252699536
596,-0.4781228682077897
597,9.774472437711296
2,2, 5, 4, 0,22,20.00,30.00,Thursday
148,27.786326096540756
596,-0.5341439277200224
597,10.969544923581737
2,2, 5, 4, 0,22,30.00,40.00,Thursday
148,27.788755471013649
596,-0.5281404292496365
597,10.83498107793433
2,2, 5, 4, 0,22,40.00,50.00,Thursday
148,27.854245786755425
596,-0.5260892365224907
597,10.789362844960565