Program Version,EnergyPlus, Version 9.5.0-de239b2e5f, YMD=2021.12.08 22:26
1,5,Environment Title[],Latitude[deg],Longitude[deg],Time Zone[],Elevation[m]
2,8,Day of Simulation[],Month[],Day of Month[],DST Indicator[1=yes 0=no],Hour[],StartMinute[],EndMinute[],DayType
3,5,Cumulative Day of Simulation[],Month[],Day of Month[],DST Indicator[1=yes 0=no],DayType  ! When Daily Report Variables Requested
4,2,Cumulative Days of Simulation[],Month[]  ! When Monthly Report Variables Requested
5,1,Cumulative Days of Simulation[] ! When Run Period Report Variables Requested
6,1,Calendar Year of Simulation[] ! When Annual Report Variables Requested
148,1,THERMAL ZONE: JORGE,Zone Mean Air Temperature [C] !TimeStep
596,1,JORGE,Zone Thermal Comfort Fanger Model PMV [] !TimeStep
597,1,JORGE,Zone Thermal Comfort Fanger Model PPD [%] !TimeStep
End of Data Dictionary
1,RUN PERIOD 1,  18.85, -99.14,  -6.00,1280.00
2,1, 5, 3, 0, 1, 0.00,10.00,Wednesday
148,26.873436135621668
596,-30.18510837213538
597,100.0
2,1, 5, 3, 0, 1,10.00,20.00,Wednesday
148,26.764394924003424
596,-30.448250665590395
597,100.0
2,1, 5, 3, 0, 1,20.00,30.00,Wednesday
148,26.715252051648748
596,-30.590729011655414
597,100.0
2,1, 5, 3, 0, 1,30.00,40.00,Wednesday
148,26.67320197771735
596,-30.749744122718334
597,100.0
2,1, 5, 3, 0, 1,40.00,50.00,Wednesday
148,26.60191997832017
596,-30.951440320252538
597,100.0
2,1, 5, 3, 0, 1,50.00,60.00,Wednesday
148,26.48568444944197
596,-31.235187576719789
597,100.0
2,1, 5, 3, 0, 2, 0.00,10.00,Wednesday
148,26.374932886878694
596,-31.5128150488595
597,100.0
2,1, 5, 3, 0, 2,10.00,20.00,Wednesday
148,26.304171597318616
596,-31.725147169337168
597,100.0
2,1, 5, 3, 0, 2,20.00,30.00,Wednesday
148,26.143199655019005
596,-32.09342040023499
597,100.0
2,1, 5, 3, 0, 2,30.00,40.00,Wednesday
148,26.063554089479227
596,-32.30689860487722
597,100.0
2,1, 5, 3, 0, 2,40.00,50.00,Wednesday
148,26.014483998983697
596,-32.455189011903318
597,100.0
2,1, 5, 3, 0, 2,50.00,60.00,Wednesday
148,26.0105711580744
596,-32.544749943973688
597,100.0
2,1, 5, 3, 0, 3, 0.00,10.00,Wednesday
148,25.995547209593746
596,-32.658647451089148
597,100.0
2,1, 5, 3, 0, 3,10.00,20.00,Wednesday
148,26.030833067481085
596,-32.66401395296823
597,100.0
2,1, 5, 3, 0, 3,20.00,30.00,Wednesday
148,26.043947116959747
596,-32.70176975785501
597,100.0
2,1, 5, 3, 0, 3,30.00,40.00,Wednesday
148,25.98506241477371
596,-32.888099194953948
597,100.0
2,1, 5, 3, 0, 3,40.00,50.00,Wednesday
148,25.929494703853196
596,-33.0456834639445
597,100.0
2,1, 5, 3, 0, 3,50.00,60.00,Wednesday
148,25.87240333869277
596,-33.23445667450303
597,100.0
2,1, 5, 3, 0, 4, 0.00,10.00,Wednesday
148,25.81892255783332
596,-33.406913683254987
597,100.0
2,1, 5, 3, 0, 4,10.00,20.00,Wednesday
148,25.748032393383139
596,-33.595246827146329
597,100.0
2,1, 5, 3, 0, 4,20.00,30.00,Wednesday
148,25.717722859798515
596,-33.74589459148854
597,100.0
2,1, 5, 3, 0, 4,30.00,40.00,Wednesday
148,25.547196689543779
596,-34.143810936454908
597,100.0
2,1, 5, 3, 0, 4,40.00,50.00,Wednesday
148,25.316172799056063
596,-34.6791239550473
597,100.0
2,1, 5, 3, 0, 4,50.00,60.00,Wednesday
148,25.18453127156311
596,-34.99429675849587
597,100.0
2,1, 5, 3, 0, 5, 0.00,10.00,Wednesday
148,25.140546103352045
596,-35.16976946452957
597,100.0
2,1, 5, 3, 0, 5,10.00,20.00,Wednesday
148,25.19100922531976
596,-35.158229613067728
597,100.0
2,1, 5, 3, 0, 5,20.00,30.00,Wednesday
148,25.240734089071304
596,-35.116792219617519
597,100.0
2,1, 5, 3, 0, 5,30.00,40.00,Wednesday
148,25.268478172115889
596,-35.13163973610273
597,100.0
2,1, 5, 3, 0, 5,40.00,50.00,Wednesday
148,25.239429991691318
596,-35.223666981923397
597,100.0
2,1, 5, 3, 0, 5,50.00,60.00,Wednesday
148,25.107408493606696
596,-35.56817074391341
597,100.0
2,1, 5, 3, 0, 6, 0.00,10.00,Wednesday
148,24.98201323895983
596,-35.86761942531584
597,100.0
2,1, 5, 3, 0, 6,10.00,20.00,Wednesday
148,24.805121790964077
596,-36.33281325334734
597,100.0
2,1, 5, 3, 0, 6,20.00,30.00,Wednesday
148,24.72243695108117
596,-36.55265271335757
597,100.0
2,1, 5, 3, 0, 6,30.00,40.00,Wednesday
148,24.59593937284771
596,-36.924090561289379
597,100.0
2,1, 5, 3, 0, 6,40.00,50.00,Wednesday
148,24.4746989090875
596,-37.212715573741039
597,100.0
2,1, 5, 3, 0, 6,50.00,60.00,Wednesday
148,24.380345436171515
596,-37.47252875466256
597,100.0
2,1, 5, 3, 0, 7, 0.00,10.00,Wednesday
148,24.373528119892926
596,-37.540455978076519
597,100.0
2,1, 5, 3, 0, 7,10.00,20.00,Wednesday
148,24.450331775642533
596,-37.4312833196434
597,100.0
2,1, 5, 3, 0, 7,20.00,30.00,Wednesday
148,24.483957489153803
596,-37.44989868430888
597,100.0
2,1, 5, 3, 0, 7,30.00,40.00,Wednesday
148,24.318028109548096
596,-37.84504041938021
597,100.0
2,1, 5, 3, 0, 7,40.00,50.00,Wednesday
148,24.200725569616766
596,-38.09475456932191
597,100.0
2,1, 5, 3, 0, 7,50.00,60.00,Wednesday
148,24.377983137583713
596,-37.735691874466308
597,100.0
2,1, 5, 3, 0, 8, 0.00,10.00,Wednesday
148,24.508258236477297
596,-37.487780480633897
597,100.0
2,1, 5, 3, 0, 8,10.00,20.00,Wednesday
148,24.40768154932549
596,-37.6864640803315
597,100.0
2,1, 5, 3, 0, 8,20.00,30.00,Wednesday
148,24.449361430970066
596,-37.55477374725659
597,100.0
2,1, 5, 3, 0, 8,30.00,40.00,Wednesday
148,24.545682938454719
596,-37.312591006156818
597,100.0
2,1, 5, 3, 0, 8,40.00,50.00,Wednesday
148,24.688409674838117
596,-36.9489453174791
597,100.0
2,1, 5, 3, 0, 8,50.00,60.00,Wednesday
148,24.893278696534254
596,-36.45092697686797
597,100.0
2,1, 5, 3, 0, 9, 0.00,10.00,Wednesday
148,25.061376046168115
596,-35.958647512537478
597,100.0
2,1, 5, 3, 0, 9,10.00,20.00,Wednesday
148,25.233277288420024
596,-35.59406226406658
597,100.0
2,1, 5, 3, 0, 9,20.00,30.00,Wednesday
148,25.364274934900079
596,-35.29724363088865
597,100.0
2,1, 5, 3, 0, 9,30.00,40.00,Wednesday
148,25.44834944740176
596,-35.054353967692779
597,100.0
2,1, 5, 3, 0, 9,40.00,50.00,Wednesday
148,25.525690967332726
596,-34.787938481525717
597,100.0
2,1, 5, 3, 0, 9,50.00,60.00,Wednesday
148,25.606334351955366
596,-34.53234676220684
597,100.0
2,1, 5, 3, 0,10, 0.00,10.00,Wednesday
148,27.646852905911826
596,0.0711375202578261
597,5.104779597357023
2,1, 5, 3, 0,10,10.00,20.00,Wednesday
148,28.002415010723625
596,0.19198099233128444
597,5.764188992187641
2,1, 5, 3, 0,10,20.00,30.00,Wednesday
148,28.28777957238129
596,0.2636245695647835
597,6.44295589401834
2,1, 5, 3, 0,10,30.00,40.00,Wednesday
148,28.784807795764729
596,0.3938777162852766
597,8.231880959482126
2,1, 5, 3, 0,10,40.00,50.00,Wednesday
148,28.96533015718795
596,0.46078112983992389
597,9.431994302051053
2,1, 5, 3, 0,10,50.00,60.00,Wednesday
148,28.957251264621364
596,0.47903181769995836
597,9.792780652601678
2,1, 5, 3, 0,11, 0.00,10.00,Wednesday
148,28.953449294445617
596,0.49059490914984746
597,10.028797726683749
2,1, 5, 3, 0,11,10.00,20.00,Wednesday
148,29.117052537934059
596,0.5534415273856022
597,11.41266179775667
2,1, 5, 3, 0,11,20.00,30.00,Wednesday
148,29.295211405156793
596,0.6189577244670069
597,13.037565325313409
2,1, 5, 3, 0,11,30.00,40.00,Wednesday
148,29.419133310262926
596,0.670283936288329
597,14.440629485929975
2,1, 5, 3, 0,11,40.00,50.00,Wednesday
148,29.512512167536547
596,0.713142663623278
597,15.699604692248187
2,1, 5, 3, 0,11,50.00,60.00,Wednesday
148,29.600896417795839
596,0.7505336731602245
597,16.86262846209847
2,1, 5, 3, 0,12, 0.00,10.00,Wednesday
148,29.762592547573037
596,0.8125554063169572
597,18.923540432396437
2,1, 5, 3, 0,12,10.00,20.00,Wednesday
148,29.85325241879076
596,0.8437398184930715
597,20.02119580028102
2,1, 5, 3, 0,12,20.00,30.00,Wednesday
148,30.065870341838065
596,0.9234006477890097
597,23.00791810717743
2,1, 5, 3, 0,12,30.00,40.00,Wednesday
148,30.173911947693804
596,0.9650628359831115
597,24.671961832836617
2,1, 5, 3, 0,12,40.00,50.00,Wednesday
148,30.344171632368697
596,1.0285005334584095
597,27.33496425153004
2,1, 5, 3, 0,12,50.00,60.00,Wednesday
148,30.498942270397835
596,1.0856678141657415
597,29.86223744414019
2,1, 5, 3, 0,13, 0.00,10.00,Wednesday
148,30.678755543935666
596,1.1534314912727529
597,33.00389108081677
2,1, 5, 3, 0,13,10.00,20.00,Wednesday
148,30.810516547496687
596,1.19511211326397
597,35.008924670141158
2,1, 5, 3, 0,13,20.00,30.00,Wednesday
148,30.911441636364115
596,1.2377777478180739
597,37.11370112776543
2,1, 5, 3, 0,13,30.00,40.00,Wednesday
148,31.006974367680575
596,1.2729870435674949
597,38.88723374933106
2,1, 5, 3, 0,13,40.00,50.00,Wednesday
148,31.125712864628868
596,1.3060968987775026
597,40.58246281064117
2,1, 5, 3, 0,13,50.00,60.00,Wednesday
148,31.182366552678777
596,1.324639708842654
597,41.54251287246613
2,1, 5, 3, 0,14, 0.00,10.00,Wednesday
148,31.181861645250966
596,1.3532094001101374
597,43.035357509402427
2,1, 5, 3, 0,14,10.00,20.00,Wednesday
148,31.306725677454986
596,1.4193893401447458
597,46.5478468905907
2,1, 5, 3, 0,14,20.00,30.00,Wednesday
148,31.46344076450825
596,1.4733555617040489
597,49.45509150797172
2,1, 5, 3, 0,14,30.00,40.00,Wednesday
148,31.57133873538584
596,1.5150078651109742
597,51.71598637094538
2,1, 5, 3, 0,14,40.00,50.00,Wednesday
148,31.725219774683795
596,1.574860447393712
597,54.9762226812944
2,1, 5, 3, 0,14,50.00,60.00,Wednesday
148,31.982478223501077
596,1.6480744774012009
597,58.9553123134736
2,1, 5, 3, 0,15, 0.00,10.00,Wednesday
148,31.780685286926066
596,-22.814686471282326
597,100.0
2,1, 5, 3, 0,15,10.00,20.00,Wednesday
148,31.77705674355759
596,-22.671227959881379
597,100.0
2,1, 5, 3, 0,15,20.00,30.00,Wednesday
148,31.953352700071468
596,-22.003943878870627
597,100.0
2,1, 5, 3, 0,15,30.00,40.00,Wednesday
148,32.07772890183173
596,-21.510765154058239
597,100.0
2,1, 5, 3, 0,15,40.00,50.00,Wednesday
148,32.17296890317736
596,-21.270375462897215
597,100.0
2,1, 5, 3, 0,15,50.00,60.00,Wednesday
148,32.28400487103334
596,-20.85486051755114
597,100.0
2,1, 5, 3, 0,16, 0.00,10.00,Wednesday
148,32.393519475771388
596,-20.400550982006263
597,100.0
2,1, 5, 3, 0,16,10.00,20.00,Wednesday
148,32.49908262521259
596,-20.177998494062224
597,100.0
2,1, 5, 3, 0,16,20.00,30.00,Wednesday
148,32.53542913010436
596,-20.08929087727008
597,100.0
2,1, 5, 3, 0,16,30.00,40.00,Wednesday
148,32.62837612446741
596,1.1142503403135005
597,31.16878846973468
2,1, 5, 3, 0,16,40.00,50.00,Wednesday
148,32.73753274402634
596,1.1646298712171258
597,33.53738269271952
2,1, 5, 3, 0,16,50.00,60.00,Wednesday
148,32.61128112497475
596,1.0727681808250107
597,29.281789462320334
2,1, 5, 3, 0,17, 0.00,10.00,Wednesday
148,32.448786458815117
596,1.9475877468949444
597,74.33970519734007
2,1, 5, 3, 0,17,10.00,20.00,Wednesday
148,32.309102903667568
596,1.9085781235276874
597,72.47133517156482
2,1, 5, 3, 0,17,20.00,30.00,Wednesday
148,32.13531565553208
596,1.8579969424501142
597,69.97399548173932
2,1, 5, 3, 0,17,30.00,40.00,Wednesday
148,31.964772142188413
596,1.8194101036791775
597,68.0184710909788
2,1, 5, 3, 0,17,40.00,50.00,Wednesday
148,31.893090810195959
596,1.8020033116335137
597,67.12362129350716
2,1, 5, 3, 0,17,50.00,60.00,Wednesday
148,31.961818388206586
596,1.82241898926587
597,68.17238562295892
2,1, 5, 3, 0,18, 0.00,10.00,Wednesday
148,31.93231912349451
596,1.8156508072889868
597,67.82584762530508
2,1, 5, 3, 0,18,10.00,20.00,Wednesday
148,31.860359021450529
596,1.8018564996634899
597,67.11604264632419
2,1, 5, 3, 0,18,20.00,30.00,Wednesday
148,31.841836590757806
596,1.804376948582325
597,67.24608057683084
2,1, 5, 3, 0,18,30.00,40.00,Wednesday
148,31.864959388065299
596,1.815606961133378
597,67.82359888326124
2,1, 5, 3, 0,18,40.00,50.00,Wednesday
148,31.921157322464344
596,1.836143747025986
597,68.87146488308217
2,1, 5, 3, 0,18,50.00,60.00,Wednesday
148,31.989676995044048
596,1.8571312376995806
597,69.93057595151834
2,1, 5, 3, 0,19, 0.00,10.00,Wednesday
148,30.526007475676278
596,-20.550466946081366
597,100.0
2,1, 5, 3, 0,19,10.00,20.00,Wednesday
148,30.08317652329927
596,-21.342827915128674
597,100.0
2,1, 5, 3, 0,19,20.00,30.00,Wednesday
148,29.841494208134148
596,-21.81528372373811
597,100.0
2,1, 5, 3, 0,19,30.00,40.00,Wednesday
148,29.348711138167134
596,-22.54760375788272
597,100.0
2,1, 5, 3, 0,19,40.00,50.00,Wednesday
148,29.09922558474532
596,-23.006768875675829
597,100.0
2,1, 5, 3, 0,19,50.00,60.00,Wednesday
148,29.0382238258462
596,-23.28124003919001
597,100.0
2,1, 5, 3, 0,20, 0.00,10.00,Wednesday
148,29.017322370522704
596,-23.424255527601014
597,100.0
2,1, 5, 3, 0,20,10.00,20.00,Wednesday
148,28.95575509899567
596,-23.6190273464675
597,100.0
2,1, 5, 3, 0,20,20.00,30.00,Wednesday
148,28.85250949046498
596,-23.879178839656409
597,100.0
2,1, 5, 3, 0,20,30.00,40.00,Wednesday
148,28.73698947932674
596,-24.1628669425386
597,100.0
2,1, 5, 3, 0,20,40.00,50.00,Wednesday
148,28.554093182877084
596,-24.58301990329104
597,100.0
2,1, 5, 3, 0,20,50.00,60.00,Wednesday
148,28.44462335272292
596,-24.907360182002873
597,100.0
2,1, 5, 3, 0,21, 0.00,10.00,Wednesday
148,28.36480656016454
596,-25.166639541989299
597,100.0
2,1, 5, 3, 0,21,10.00,20.00,Wednesday
148,28.27205795752799
596,-25.40380939940819
597,100.0
2,1, 5, 3, 0,21,20.00,30.00,Wednesday
148,28.109856429447519
596,-25.82239583993063
597,100.0
2,1, 5, 3, 0,21,30.00,40.00,Wednesday
148,27.84296042662672
596,-26.403153853566566
597,100.0
2,1, 5, 3, 0,21,40.00,50.00,Wednesday
148,27.835775680094718
596,-26.529213478319769
597,100.0
2,1, 5, 3, 0,21,50.00,60.00,Wednesday
148,27.749792067535883
596,-26.82111227059407
597,100.0
2,1, 5, 3, 0,22, 0.00,10.00,Wednesday
148,27.725840889875589
596,-26.944174698252774
597,100.0
2,1, 5, 3, 0,22,10.00,20.00,Wednesday
148,27.676012130666469
596,-27.134797614002968
597,100.0
2,1, 5, 3, 0,22,20.00,30.00,Wednesday
148,27.542103117134276
596,-27.5257491119542
597,100.0
2,1, 5, 3, 0,22,30.00,40.00,Wednesday
148,27.444072247780185
596,-27.791901000210645
597,100.0
2,1, 5, 3, 0,22,40.00,50.00,Wednesday
148,27.443795928349226
596,-27.86904713815992
597,100.0
2,1, 5, 3, 0,22,50.00,60.00,Wednesday
148,27.41589270743279
596,-28.0208608147047
597,100.0
2,1, 5, 3, 0,23, 0.00,10.00,Wednesday
148,27.48654496841558
596,-27.99729797912565
597,100.0
2,1, 5, 3, 0,23,10.00,20.00,Wednesday
148,27.45105875791476
596,-28.071740254319609
597,100.0
2,1, 5, 3, 0,23,20.00,30.00,Wednesday
148,27.39020073525391
596,-28.26852207481875
597,100.0
2,1, 5, 3, 0,23,30.00,40.00,Wednesday
148,27.422054047488577
596,-28.352339177820153
597,100.0
2,1, 5, 3, 0,23,40.00,50.00,Wednesday
148,27.412831316145064
596,-28.4422869414525
597,100.0
2,1, 5, 3, 0,23,50.00,60.00,Wednesday
148,27.369352120163364
596,-28.556272610435295
597,100.0
2,1, 5, 3, 0,24, 0.00,10.00,Wednesday
148,27.352221554178564
596,-28.647779826247257
597,100.0
2,1, 5, 3, 0,24,10.00,20.00,Wednesday
148,27.334260399220125
596,-28.756836237229686
597,100.0
2,1, 5, 3, 0,24,20.00,30.00,Wednesday
148,27.267520947136324
596,-28.943870965785199
597,100.0
2,1, 5, 3, 0,24,30.00,40.00,Wednesday
148,27.21558136844347
596,-29.09836210477807
597,100.0
2,1, 5, 3, 0,24,40.00,50.00,Wednesday
148,27.127408254085699
596,-29.321536518457298
597,100.0
2,1, 5, 3, 0,24,50.00,60.00,Wednesday
148,27.069201945778457
596,-29.49037468268501
597,100.0
2,2, 5, 4, 0, 1, 0.00,10.00,Thursday
148,27.132710644842434
596,-29.475697387748608
597,100.0
2,2, 5, 4, 0, 1,10.00,20.00,Thursday
148,27.13795832589403
596,-29.569006902550059
597,100.0
2,2, 5, 4, 0, 1,20.00,30.00,Thursday
148,27.05309972804418
596,-29.781702922679395
597,100.0
2,2, 5, 4, 0, 1,30.00,40.00,Thursday
148,26.91453062978562
596,-30.109639610021014
597,100.0
2,2, 5, 4, 0, 1,40.00,50.00,Thursday
148,26.85406091422477
596,-30.26867390627223
597,100.0
2,2, 5, 4, 0, 1,50.00,60.00,Thursday
148,26.851562921222024
596,-30.33555530553768
597,100.0
2,2, 5, 4, 0, 2, 0.00,10.00,Thursday
148,26.870788145759616
596,-30.363788952317706
597,100.0
2,2, 5, 4, 0, 2,10.00,20.00,Thursday
148,26.84414698345594
596,-30.472482758769205
597,100.0
2,2, 5, 4, 0, 2,20.00,30.00,Thursday
148,26.818998473579688
596,-30.56203549498589
597,100.0
2,2, 5, 4, 0, 2,30.00,40.00,Thursday
148,26.76864391358224
596,-30.712906891125578
597,100.0
2,2, 5, 4, 0, 2,40.00,50.00,Thursday
148,26.70864764194011
596,-30.871230994772178
597,100.0
2,2, 5, 4, 0, 2,50.00,60.00,Thursday
148,26.657095241612376
596,-31.02745927742346
597,100.0
2,2, 5, 4, 0, 3, 0.00,10.00,Thursday
148,26.631311589521454
596,-31.15074784708267
597,100.0
2,2, 5, 4, 0, 3,10.00,20.00,Thursday
148,26.54697752628117
596,-31.391275275129499
597,100.0
2,2, 5, 4, 0, 3,20.00,30.00,Thursday
148,26.513072315558249
596,-31.535524551122415
597,100.0
2,2, 5, 4, 0, 3,30.00,40.00,Thursday
148,26.402463939942533
596,-31.808175276938497
597,100.0
2,2, 5, 4, 0, 3,40.00,50.00,Thursday
148,26.29314898268688
596,-32.06268459767559
597,100.0
2,2, 5, 4, 0, 3,50.00,60.00,Thursday
148,26.270790128665625
596,-32.20202412594858
597,100.0
2,2, 5, 4, 0, 4, 0.00,10.00,Thursday
148,26.19875976183956
596,-32.426950890139568
597,100.0
2,2, 5, 4, 0, 4,10.00,20.00,Thursday
148,26.09572517507546
596,-32.69514772900537
597,100.0
2,2, 5, 4, 0, 4,20.00,30.00,Thursday
148,26.030569997909429
596,-32.894536122179598
597,100.0
2,2, 5, 4, 0, 4,30.00,40.00,Thursday
148,25.935663323616948
596,-33.14338707101177
597,100.0
2,2, 5, 4, 0, 4,40.00,50.00,Thursday
148,25.850596079234586
596,-33.351501857982167
597,100.0
2,2, 5, 4, 0, 4,50.00,60.00,Thursday
148,25.83531604689783
596,-33.42410535868679
597,100.0
2,2, 5, 4, 0, 5, 0.00,10.00,Thursday
148,25.75665976094141
596,-33.6679659219521
597,100.0
2,2, 5, 4, 0, 5,10.00,20.00,Thursday
148,25.665158573179494
596,-33.90962650317235
597,100.0
2,2, 5, 4, 0, 5,20.00,30.00,Thursday
148,25.576438722531358
596,-34.09931510788858
597,100.0
2,2, 5, 4, 0, 5,30.00,40.00,Thursday
148,25.532809043210717
596,-34.23528292274257
597,100.0
2,2, 5, 4, 0, 5,40.00,50.00,Thursday
148,25.508248487408957
596,-34.38146761932457
597,100.0
2,2, 5, 4, 0, 5,50.00,60.00,Thursday
148,25.445713924166808
596,-34.57980258463657
597,100.0
2,2, 5, 4, 0, 6, 0.00,10.00,Thursday
148,25.417937787609426
596,-34.670619910370358
597,100.0
2,2, 5, 4, 0, 6,10.00,20.00,Thursday
148,25.251159771214796
596,-35.094931907448039
597,100.0
2,2, 5, 4, 0, 6,20.00,30.00,Thursday
148,25.185777178133553
596,-35.28794348484356
597,100.0
2,2, 5, 4, 0, 6,30.00,40.00,Thursday
148,25.002544810569373
596,-35.74096686083636
597,100.0
2,2, 5, 4, 0, 6,40.00,50.00,Thursday
148,24.82959276973967
596,-36.130884531354549
597,100.0
2,2, 5, 4, 0, 6,50.00,60.00,Thursday
148,24.800610001154863
596,-36.202084348031338
597,100.0
2,2, 5, 4, 0, 7, 0.00,10.00,Thursday
148,24.91174179567494
596,-36.04421299285181
597,100.0
2,2, 5, 4, 0, 7,10.00,20.00,Thursday
148,25.03560762535459
596,-35.85413484107614
597,100.0
2,2, 5, 4, 0, 7,20.00,30.00,Thursday
148,24.948968968464788
596,-36.06148263506728
597,100.0
2,2, 5, 4, 0, 7,30.00,40.00,Thursday
148,24.988513088231949
596,-36.04766957309609
597,100.0
2,2, 5, 4, 0, 7,40.00,50.00,Thursday
148,25.038770757960969
596,-35.95518370877058
597,100.0
2,2, 5, 4, 0, 7,50.00,60.00,Thursday
148,25.069849930202854
596,-35.90366932228417
597,100.0
2,2, 5, 4, 0, 8, 0.00,10.00,Thursday
148,25.07667963060226
596,-35.89861739775984
597,100.0
2,2, 5, 4, 0, 8,10.00,20.00,Thursday
148,25.05807444864492
596,-35.91795969149803
597,100.0
2,2, 5, 4, 0, 8,20.00,30.00,Thursday
148,25.032857705993366
596,-35.94559285930569
597,100.0
2,2, 5, 4, 0, 8,30.00,40.00,Thursday
148,25.070395989907767
596,-35.81278612102357
597,100.0
2,2, 5, 4, 0, 8,40.00,50.00,Thursday
148,25.173115775741896
596,-35.53013482055101
597,100.0
2,2, 5, 4, 0, 8,50.00,60.00,Thursday
148,25.33234270909748
596,-35.16268516096494
597,100.0
2,2, 5, 4, 0, 9, 0.00,10.00,Thursday
148,25.403439477591655
596,-34.96229974588871
597,100.0
2,2, 5, 4, 0, 9,10.00,20.00,Thursday
148,25.483792655776687
596,-34.82263312956176
597,100.0
2,2, 5, 4, 0, 9,20.00,30.00,Thursday
148,25.618494564264155
596,-34.43013417178767
597,100.0
2,2, 5, 4, 0, 9,30.00,40.00,Thursday
148,25.760892059714043
596,-34.06268818819838
597,100.0
2,2, 5, 4, 0, 9,40.00,50.00,Thursday
148,25.880769451261718
596,-33.71328586076335
597,100.0
2,2, 5, 4, 0, 9,50.00,60.00,Thursday
148,25.943650584657715
596,-33.59239405528395
597,100.0
2,2, 5, 4, 0,10, 0.00,10.00,Thursday
148,27.85172408161089
596,0.12562708615977836
597,5.3269282672542179
2,2, 5, 4, 0,10,10.00,20.00,Thursday
148,28.118391578386598
596,0.21864538572369336
597,5.99167168287498
2,2, 5, 4, 0,10,20.00,30.00,Thursday
148,28.394027792179345
596,0.29248445796096647
597,6.7773439611440129
2,2, 5, 4, 0,10,30.00,40.00,Thursday
148,28.822760005014965
596,0.4006270838929873
597,8.344248323189774
2,2, 5, 4, 0,10,40.00,50.00,Thursday
148,28.98355928135123
596,0.46224900155057788
597,9.46048098863345
2,2, 5, 4, 0,10,50.00,60.00,Thursday
148,29.044701687814908
596,0.5023839339628371
597,10.275369791510628
2,2, 5, 4, 0,11, 0.00,10.00,Thursday
148,29.12995865907161
596,0.5441641435213666
597,11.197617733040972
2,2, 5, 4, 0,11,10.00,20.00,Thursday
148,29.233751408268355
596,0.5876106953516564
597,12.23687138330942
2,2, 5, 4, 0,11,20.00,30.00,Thursday
148,29.318405137033929
596,0.6218098017726719
597,13.112532190470873
2,2, 5, 4, 0,11,30.00,40.00,Thursday
148,29.46375978343337
596,0.6779378547512349
597,14.659639399284658
2,2, 5, 4, 0,11,40.00,50.00,Thursday
148,29.59132124845354
596,0.7192950221803899
597,15.886837577709273
2,2, 5, 4, 0,11,50.00,60.00,Thursday
148,29.70606952612028
596,0.7712412696798526
597,17.53251321011453
2,2, 5, 4, 0,12, 0.00,10.00,Thursday
148,29.880680658291014
596,0.839591246346647
597,19.872822489216106
2,2, 5, 4, 0,12,10.00,20.00,Thursday
148,30.033451388174489
596,0.8899505346293816
597,21.72214895591688
2,2, 5, 4, 0,12,20.00,30.00,Thursday
148,30.171791126966178
596,0.946654287052162
597,23.928235367431954
2,2, 5, 4, 0,12,30.00,40.00,Thursday
148,30.371601346120025
596,1.0098437541253965
597,26.535962382612938
2,2, 5, 4, 0,12,40.00,50.00,Thursday
148,30.43101962494411
596,1.0371434783572704
597,27.709482548073184
2,2, 5, 4, 0,12,50.00,60.00,Thursday
148,30.471584560547357
596,1.0550315958545649
597,28.493278639622049
2,2, 5, 4, 0,13, 0.00,10.00,Thursday
148,30.625399138357705
596,1.1152911802427446
597,31.216887973622293
2,2, 5, 4, 0,13,10.00,20.00,Thursday
148,30.82362677493404
596,1.193288653176848
597,34.92011910666855
2,2, 5, 4, 0,13,20.00,30.00,Thursday
148,30.94633367823903
596,1.2349349254145524
597,36.97190318838075
2,2, 5, 4, 0,13,30.00,40.00,Thursday
148,31.06631779064209
596,1.2770097318145844
597,39.09182828291998
2,2, 5, 4, 0,13,40.00,50.00,Thursday
148,31.16740767131916
596,1.31314004241587
597,40.94625806631988
2,2, 5, 4, 0,13,50.00,60.00,Thursday
148,31.313743426963187
596,1.3662756482244772
597,43.72320807497364
2,2, 5, 4, 0,14, 0.00,10.00,Thursday
148,31.40417457941505
596,1.410182158791466
597,46.05523015777158
2,2, 5, 4, 0,14,10.00,20.00,Thursday
148,31.47410905930326
596,1.4331544545884314
597,47.286355467777358
2,2, 5, 4, 0,14,20.00,30.00,Thursday
148,31.524105295633477
596,1.450053888967755
597,48.19604602102785
2,2, 5, 4, 0,14,30.00,40.00,Thursday
148,31.569164210871056
596,1.467988170090214
597,49.16464266824194
2,2, 5, 4, 0,14,40.00,50.00,Thursday
148,31.613480050395546
596,1.4790089092231138
597,49.76126939654312
2,2, 5, 4, 0,14,50.00,60.00,Thursday
148,31.76873735179344
596,1.5533250741463969
597,53.8026581020784
2,2, 5, 4, 0,15, 0.00,10.00,Thursday
148,31.881463499510056
596,-22.516172571126245
597,100.0
2,2, 5, 4, 0,15,10.00,20.00,Thursday
148,31.876601473585173
596,-22.528796181883288
597,100.0
2,2, 5, 4, 0,15,20.00,30.00,Thursday
148,31.901167841314668
596,-22.49434813910781
597,100.0
2,2, 5, 4, 0,15,30.00,40.00,Thursday
148,31.916717224866117
596,-22.540025245046747
597,100.0
2,2, 5, 4, 0,15,40.00,50.00,Thursday
148,31.943247734200378
596,-22.427779067809678
597,100.0
2,2, 5, 4, 0,15,50.00,60.00,Thursday
148,32.03785690358145
596,-22.07120951745755
597,100.0
2,2, 5, 4, 0,16, 0.00,10.00,Thursday
148,32.2008998527033
596,-21.443460150092478
597,100.0
2,2, 5, 4, 0,16,10.00,20.00,Thursday
148,32.35767540890267
596,-20.87362611065439
597,100.0
2,2, 5, 4, 0,16,20.00,30.00,Thursday
148,32.49486295595527
596,-20.531232570024767
597,100.0
2,2, 5, 4, 0,16,30.00,40.00,Thursday
148,32.611761067052217
596,1.043311776260511
597,27.978443314235819
2,2, 5, 4, 0,16,40.00,50.00,Thursday
148,32.635599386674048
596,1.0410921398794393
597,27.881498942829965
2,2, 5, 4, 0,16,50.00,60.00,Thursday
148,32.62168537779847
596,1.0329650034928806
597,27.528076701424284
2,2, 5, 4, 0,17, 0.00,10.00,Thursday
148,32.6463252422829
596,1.9487132165465713
597,74.39280822149533
2,2, 5, 4, 0,17,10.00,20.00,Thursday
148,32.724617348098977
596,1.9726427653903327
597,75.51073638848234
2,2, 5, 4, 0,17,20.00,30.00,Thursday
148,32.69012401846528
596,1.963433070009661
597,75.08302868603819
2,2, 5, 4, 0,17,30.00,40.00,Thursday
148,32.742438360881347
596,1.9869213795809764
597,76.16739184867805
2,2, 5, 4, 0,17,40.00,50.00,Thursday
148,32.71945874530566
596,1.9796881515012126
597,75.83573622294945
2,2, 5, 4, 0,17,50.00,60.00,Thursday
148,32.703556536452847
596,1.9648417112272468
597,75.14865604072389
2,2, 5, 4, 0,18, 0.00,10.00,Thursday
148,32.658149711602877
596,1.9555886127698814
597,74.71619989373596
2,2, 5, 4, 0,18,10.00,20.00,Thursday
148,32.67360685309217
596,1.9635763252697356
597,75.08970624328399
2,2, 5, 4, 0,18,20.00,30.00,Thursday
148,32.719368786806878
596,1.982258949090722
597,75.95384617502606
2,2, 5, 4, 0,18,30.00,40.00,Thursday
148,32.79822043536404
596,2.005927568627158
597,77.02895770584874
2,2, 5, 4, 0,18,40.00,50.00,Thursday
148,32.856963062397337
596,2.022280911620122
597,77.75850522276412
2,2, 5, 4, 0,18,50.00,60.00,Thursday
148,32.81845691524223
596,2.0087036118877839
597,77.15357722360808
2,2, 5, 4, 0,19, 0.00,10.00,Thursday
148,31.356545865116375
596,-18.832981566056806
597,100.0
2,2, 5, 4, 0,19,10.00,20.00,Thursday
148,30.868054231201069
596,-19.649451769220396
597,100.0
2,2, 5, 4, 0,19,20.00,30.00,Thursday
148,30.675084773651315
596,-19.914922565742
597,100.0
2,2, 5, 4, 0,19,30.00,40.00,Thursday
148,30.201136871910998
596,-20.646803643165275
597,100.0
2,2, 5, 4, 0,19,40.00,50.00,Thursday
148,30.055995042554956
596,-20.96284979078773
597,100.0
2,2, 5, 4, 0,19,50.00,60.00,Thursday
148,30.005165241260863
596,-21.214101606159319
597,100.0
2,2, 5, 4, 0,20, 0.00,10.00,Thursday
148,29.938556399419864
596,-21.425015825126637
597,100.0
2,2, 5, 4, 0,20,10.00,20.00,Thursday
148,29.83966577388011
596,-21.678486223433429
597,100.0
2,2, 5, 4, 0,20,20.00,30.00,Thursday
148,29.73730143365654
596,-21.936675179507465
597,100.0
2,2, 5, 4, 0,20,30.00,40.00,Thursday
148,29.65195604013949
596,-22.156808707889029
597,100.0
2,2, 5, 4, 0,20,40.00,50.00,Thursday
148,29.577365065655568
596,-22.358009778665776
597,100.0
2,2, 5, 4, 0,20,50.00,60.00,Thursday
148,29.521194035547408
596,-22.498174046224393
597,100.0
2,2, 5, 4, 0,21, 0.00,10.00,Thursday
148,29.469086578801737
596,-22.645793416530297
597,100.0
2,2, 5, 4, 0,21,10.00,20.00,Thursday
148,29.419912682134937
596,-22.774601826578846
597,100.0
2,2, 5, 4, 0,21,20.00,30.00,Thursday
148,29.362035968778064
596,-22.938404395191914
597,100.0
2,2, 5, 4, 0,21,30.00,40.00,Thursday
148,29.31948007328587
596,-23.044295656036746
597,100.0
2,2, 5, 4, 0,21,40.00,50.00,Thursday
148,29.278035480548913
596,-23.165772721221168
597,100.0
2,2, 5, 4, 0,21,50.00,60.00,Thursday
148,29.213677802344195
596,-23.349544650154259
597,100.0
2,2, 5, 4, 0,22, 0.00,10.00,Thursday
148,29.135596222476989
596,-23.552428538287644
597,100.0
2,2, 5, 4, 0,22,10.00,20.00,Thursday
148,29.066185382238819
596,-23.704301215071636
597,100.0
2,2, 5, 4, 0,22,20.00,30.00,Thursday
148,28.96835006854385
596,-23.96182270229968
597,100.0
2,2, 5, 4, 0,22,30.00,40.00,Thursday
148,28.924527535600427
596,-24.032259410303934
597,100.0
2,2, 5, 4, 0,22,40.00,50.00,Thursday
148,28.894141282543737
596,-24.146453686249516
597,100.0
2,2, 5, 4, 0,22,50.00,60.00,Thursday
148,28.873896316319269
596,-24.265541817617256
597,100.0
2,2, 5, 4, 0,23, 0.00,10.00,Thursday
148,28.829439254101819
596,-24.41105927608061
597,100.0
2,2, 5, 4, 0,23,10.00,20.00,Thursday
148,28.77111918055497
596,-24.613635820941828
597,100.0
2,2, 5, 4, 0,23,20.00,30.00,Thursday
148,28.69739766989963
596,-24.8214379113509
597,100.0
2,2, 5, 4, 0,23,30.00,40.00,Thursday
148,28.640899502664966
596,-25.01929825430417
597,100.0
2,2, 5, 4, 0,23,40.00,50.00,Thursday
148,28.55956554746868
596,-25.23990350265667
597,100.0
2,2, 5, 4, 0,23,50.00,60.00,Thursday
148,28.496481280185138
596,-25.3782929783728
597,100.0
2,2, 5, 4, 0,24, 0.00,10.00,Thursday
148,28.46474392519501
596,-25.468633570787366
597,100.0
2,2, 5, 4, 0,24,10.00,20.00,Thursday
148,28.411377595640027
596,-25.62491508882699
597,100.0
2,2, 5, 4, 0,24,20.00,30.00,Thursday
148,28.36136392686861
596,-25.783740061288769
597,100.0
2,2, 5, 4, 0,24,30.00,40.00,Thursday
148,28.318897479326887
596,-25.930806705016076
597,100.0
2,2, 5, 4, 0,24,40.00,50.00,Thursday
148,28.25973890520489
596,-26.155580759525536
597,100.0
2,2, 5, 4, 0,24,50.00,60.00,Thursday
148,28.167642528823224
596,-26.37238566888893
597,100.0
2,3, 5, 5, 0, 1, 0.00,10.00,Friday
148,28.072597111351759
596,-26.62817328496786
597,100.0
2,3, 5, 5, 0, 1,10.00,20.00,Friday
148,28.04315097251654
596,-26.72501731076892
597,100.0
2,3, 5, 5, 0, 1,20.00,30.00,Friday
148,27.990969949200257
596,-26.8851375350013
597,100.0
2,3, 5, 5, 0, 1,30.00,40.00,Friday
148,27.953318285032489
596,-26.998308351809187
597,100.0
2,3, 5, 5, 0, 1,40.00,50.00,Friday
148,27.89286647322563
596,-27.203301152960426
597,100.0
2,3, 5, 5, 0, 1,50.00,60.00,Friday
148,27.849303905766236
596,-27.33354401410695
597,100.0
2,3, 5, 5, 0, 2, 0.00,10.00,Friday
148,27.79398827191556
596,-27.510886701925434
597,100.0
2,3, 5, 5, 0, 2,10.00,20.00,Friday
148,27.72270814109284
596,-27.740752825847325
597,100.0
2,3, 5, 5, 0, 2,20.00,30.00,Friday
148,27.62308369447945
596,-28.0161908199126
597,100.0
2,3, 5, 5, 0, 2,30.00,40.00,Friday
148,27.42699902249888
596,-28.50562799427787
597,100.0
2,3, 5, 5, 0, 2,40.00,50.00,Friday
148,27.196359004597125
596,-29.026130613206694
597,100.0
2,3, 5, 5, 0, 2,50.00,60.00,Friday
148,27.090468882835645
596,-29.324113413737554
597,100.0