Program Version,EnergyPlus, Version 9.5.0-de239b2e5f, YMD=2021.12.09 14:16
1,5,Environment Title[],Latitude[deg],Longitude[deg],Time Zone[],Elevation[m]
2,8,Day of Simulation[],Month[],Day of Month[],DST Indicator[1=yes 0=no],Hour[],StartMinute[],EndMinute[],DayType
3,5,Cumulative Day of Simulation[],Month[],Day of Month[],DST Indicator[1=yes 0=no],DayType  ! When Daily Report Variables Requested
4,2,Cumulative Days of Simulation[],Month[]  ! When Monthly Report Variables Requested
5,1,Cumulative Days of Simulation[] ! When Run Period Report Variables Requested
6,1,Calendar Year of Simulation[] ! When Annual Report Variables Requested
148,1,THERMAL ZONE: JORGE,Zone Mean Air Temperature [C] !TimeStep
596,1,JORGE,Zone Thermal Comfort Fanger Model PMV [] !TimeStep
597,1,JORGE,Zone Thermal Comfort Fanger Model PPD [%] !TimeStep
End of Data Dictionary
1,RUN PERIOD 1,  18.85, -99.14,  -6.00,1280.00
2,1, 5, 3, 0, 1, 0.00,10.00,Wednesday
148,26.876478506440554
596,-30.17432647721625
597,100.0
2,1, 5, 3, 0, 1,10.00,20.00,Wednesday
148,26.767559077795917
596,-30.43730002043739
597,100.0
2,1, 5, 3, 0, 1,20.00,30.00,Wednesday
148,26.71844310747444
596,-30.579803032536718
597,100.0
2,1, 5, 3, 0, 1,30.00,40.00,Wednesday
148,26.676360580570898
596,-30.738961477340998
597,100.0
2,1, 5, 3, 0, 1,40.00,50.00,Wednesday
148,26.60503169365381
596,-30.94083234771662
597,100.0
2,1, 5, 3, 0, 1,50.00,60.00,Wednesday
148,26.488724842352434
596,-31.224806736227579
597,100.0
2,1, 5, 3, 0, 2, 0.00,10.00,Wednesday
148,26.377914506067954
596,-31.502635631214458
597,100.0
2,1, 5, 3, 0, 2,10.00,20.00,Wednesday
148,26.30710311069881
596,-31.71514502379644
597,100.0
2,1, 5, 3, 0, 2,20.00,30.00,Wednesday
148,26.146042853581606
596,-32.08367837339357
597,100.0
2,1, 5, 3, 0, 2,30.00,40.00,Wednesday
148,26.06633517015505
596,-32.29735976711378
597,100.0
2,1, 5, 3, 0, 2,40.00,50.00,Wednesday
148,26.017218946491924
596,-32.44582205955895
597,100.0
2,1, 5, 3, 0, 2,50.00,60.00,Wednesday
148,26.013306682150576
596,-32.53544573140191
597,100.0
2,1, 5, 3, 0, 3, 0.00,10.00,Wednesday
148,25.99827576273679
596,-32.649419131328837
597,100.0
2,1, 5, 3, 0, 3,10.00,20.00,Wednesday
148,26.033573321409276
596,-32.65480860299812
597,100.0
2,1, 5, 3, 0, 3,20.00,30.00,Wednesday
148,26.046650239621778
596,-32.69268914376704
597,100.0
2,1, 5, 3, 0, 3,30.00,40.00,Wednesday
148,25.98769170750071
596,-32.87922551522432
597,100.0
2,1, 5, 3, 0, 3,40.00,50.00,Wednesday
148,25.93207817745901
596,-33.03694432206433
597,100.0
2,1, 5, 3, 0, 3,50.00,60.00,Wednesday
148,25.874953547545159
596,-33.22584203138723
597,100.0
2,1, 5, 3, 0, 4, 0.00,10.00,Wednesday
148,25.821471931438194
596,-33.39837486157415
597,100.0
2,1, 5, 3, 0, 4,10.00,20.00,Wednesday
148,25.750545651436977
596,-33.58683928871176
597,100.0
2,1, 5, 3, 0, 4,20.00,30.00,Wednesday
148,25.720216824237114
596,-33.73757251130142
597,100.0
2,1, 5, 3, 0, 4,30.00,40.00,Wednesday
148,25.54959755422524
596,-34.13572516165347
597,100.0
2,1, 5, 3, 0, 4,40.00,50.00,Wednesday
148,25.31848751905487
596,-34.67125956352627
597,100.0
2,1, 5, 3, 0, 4,50.00,60.00,Wednesday
148,25.186815145049076
596,-34.9865564146504
597,100.0
2,1, 5, 3, 0, 5, 0.00,10.00,Wednesday
148,25.14280447895368
596,-35.162133157837008
597,100.0
2,1, 5, 3, 0, 5,10.00,20.00,Wednesday
148,25.193299819722389
596,-35.150576871464668
597,100.0
2,1, 5, 3, 0, 5,20.00,30.00,Wednesday
148,25.243029953887473
596,-35.109178850958979
597,100.0
2,1, 5, 3, 0, 5,30.00,40.00,Wednesday
148,25.270718772652875
596,-35.12416695467317
597,100.0
2,1, 5, 3, 0, 5,40.00,50.00,Wednesday
148,25.241642522844555
596,-35.216303344501337
597,100.0
2,1, 5, 3, 0, 5,50.00,60.00,Wednesday
148,25.109553274637123
596,-35.56098512446924
597,100.0
2,1, 5, 3, 0, 6, 0.00,10.00,Wednesday
148,24.98409189182348
596,-35.86060650503189
597,100.0
2,1, 5, 3, 0, 6,10.00,20.00,Wednesday
148,24.807167671413006
596,-36.3259024232762
597,100.0
2,1, 5, 3, 0, 6,20.00,30.00,Wednesday
148,24.724485762789475
596,-36.5457810613617
597,100.0
2,1, 5, 3, 0, 6,30.00,40.00,Wednesday
148,24.59797044540839
596,-36.91730038570363
597,100.0
2,1, 5, 3, 0, 6,40.00,50.00,Wednesday
148,24.476697396469484
596,-37.20602976751112
597,100.0
2,1, 5, 3, 0, 6,50.00,60.00,Wednesday
148,24.3823105486556
596,-37.4659507319551
597,100.0
2,1, 5, 3, 0, 7, 0.00,10.00,Wednesday
148,24.375479320371054
596,-37.53394706434664
597,100.0
2,1, 5, 3, 0, 7,10.00,20.00,Wednesday
148,24.452276298203317
596,-37.42483269974285
597,100.0
2,1, 5, 3, 0, 7,20.00,30.00,Wednesday
148,24.485902271371406
596,-37.44348489442722
597,100.0
2,1, 5, 3, 0, 7,30.00,40.00,Wednesday
148,24.319892561566577
596,-37.838821329951738
597,100.0
2,1, 5, 3, 0, 7,40.00,50.00,Wednesday
148,24.20253509288214
596,-38.08867729706742
597,100.0
2,1, 5, 3, 0, 7,50.00,60.00,Wednesday
148,24.379826599111259
596,-37.72958221566598
597,100.0
2,1, 5, 3, 0, 8, 0.00,10.00,Wednesday
148,24.51008468062497
596,-37.481758346759978
597,100.0
2,1, 5, 3, 0, 8,10.00,20.00,Wednesday
148,24.409451119665158
596,-37.68058964622903
597,100.0
2,1, 5, 3, 0, 8,20.00,30.00,Wednesday
148,24.45109846670954
596,-37.54900516988081
597,100.0
2,1, 5, 3, 0, 8,30.00,40.00,Wednesday
148,24.54737986036979
596,-37.30693986824555
597,100.0
2,1, 5, 3, 0, 8,40.00,50.00,Wednesday
148,24.690063900299508
596,-36.943417010658688
597,100.0
2,1, 5, 3, 0, 8,50.00,60.00,Wednesday
148,24.89491358694171
596,-36.445476020802349
597,100.0
2,1, 5, 3, 0, 9, 0.00,10.00,Wednesday
148,25.063046739923658
596,-35.953160208691738
597,100.0
2,1, 5, 3, 0, 9,10.00,20.00,Wednesday
148,25.234920345277556
596,-35.58866142818957
597,100.0
2,1, 5, 3, 0, 9,20.00,30.00,Wednesday
148,25.365902572711904
596,-35.29191267879615
597,100.0
2,1, 5, 3, 0, 9,30.00,40.00,Wednesday
148,25.44995335378037
596,-35.04910589358319
597,100.0
2,1, 5, 3, 0, 9,40.00,50.00,Wednesday
148,25.52727649476033
596,-34.782765167820567
597,100.0
2,1, 5, 3, 0, 9,50.00,60.00,Wednesday
148,25.607868039177803
596,-34.52731512266777
597,100.0
2,1, 5, 3, 0,10, 0.00,10.00,Wednesday
148,27.648158538648344
596,0.0716317118288784
597,5.106240794250397
2,1, 5, 3, 0,10,10.00,20.00,Wednesday
148,28.003977542166795
596,0.19251993342536828
597,5.768492415652958
2,1, 5, 3, 0,10,20.00,30.00,Wednesday
148,28.289357855010146
596,0.26417104762650986
597,6.448961655522581
2,1, 5, 3, 0,10,30.00,40.00,Wednesday
148,28.78641322057356
596,0.3944294927340343
597,8.240994131115727
2,1, 5, 3, 0,10,40.00,50.00,Wednesday
148,28.966923777152119
596,0.4613279926449648
597,9.442596311794944
2,1, 5, 3, 0,10,50.00,60.00,Wednesday
148,28.95880549336524
596,0.4795697589736522
597,9.803632743677568
2,1, 5, 3, 0,11, 0.00,10.00,Wednesday
148,28.954959731614609
596,0.4911188155067149
597,10.039627975240279
2,1, 5, 3, 0,11,10.00,20.00,Wednesday
148,29.11853824130277
596,0.5539588646642406
597,11.42476318344167
2,1, 5, 3, 0,11,20.00,30.00,Wednesday
148,29.296701208086288
596,0.6194749578962263
597,13.05113460521369
2,1, 5, 3, 0,11,30.00,40.00,Wednesday
148,29.420608937713117
596,0.6707950659001088
597,14.455175980124637
2,1, 5, 3, 0,11,40.00,50.00,Wednesday
148,29.51396162074839
596,0.7136458078173784
597,15.714855498134782
2,1, 5, 3, 0,11,50.00,60.00,Wednesday
148,29.602335001021865
596,0.7510319762354312
597,16.878533087043864
2,1, 5, 3, 0,12, 0.00,10.00,Wednesday
148,29.763997563299449
596,0.8130428800756462
597,18.940384666545215
2,1, 5, 3, 0,12,10.00,20.00,Wednesday
148,29.854652253020036
596,0.844225212295853
597,20.038602778180676
2,1, 5, 3, 0,12,20.00,30.00,Wednesday
148,30.067236392365495
596,0.9238744116738791
597,23.026453107160124
2,1, 5, 3, 0,12,30.00,40.00,Wednesday
148,30.175275902181313
596,0.9655347223449907
597,24.69120106194302
2,1, 5, 3, 0,12,40.00,50.00,Wednesday
148,30.34552273474233
596,1.028967889780466
597,27.35514548573188
2,1, 5, 3, 0,12,50.00,60.00,Wednesday
148,30.50027892370747
596,1.0861298655440115
597,29.88313606129367
2,1, 5, 3, 0,13, 0.00,10.00,Wednesday
148,30.680076870337638
596,1.1538888871377707
597,33.025604743602
2,1, 5, 3, 0,13,10.00,20.00,Wednesday
148,30.811834952257575
596,1.1955682096402865
597,35.03115248927695
2,1, 5, 3, 0,13,20.00,30.00,Wednesday
148,30.912745213382349
596,1.2382281984374837
597,37.13618901127274
2,1, 5, 3, 0,13,30.00,40.00,Wednesday
148,31.008199732688973
596,1.273416592414925
597,38.90906204590347
2,1, 5, 3, 0,13,40.00,50.00,Wednesday
148,31.1269163227375
596,1.306519635897886
597,40.60426779196096
2,1, 5, 3, 0,13,50.00,60.00,Wednesday
148,31.18359837759754
596,1.3250676843203709
597,41.56475643290523
2,1, 5, 3, 0,14, 0.00,10.00,Wednesday
148,31.183099078050849
596,1.3536357069371304
597,43.05775118644162
2,1, 5, 3, 0,14,10.00,20.00,Wednesday
148,31.30793258980111
596,1.4198077369332205
597,46.570259170749249
2,1, 5, 3, 0,14,20.00,30.00,Wednesday
148,31.464621498824994
596,1.4737666798116956
597,49.47734849471951
2,1, 5, 3, 0,14,30.00,40.00,Wednesday
148,31.572503057274479
596,1.5154130278661114
597,51.73802663555078
2,1, 5, 3, 0,14,40.00,50.00,Wednesday
148,31.72637167828273
596,1.575259987592366
597,54.99799243987804
2,1, 5, 3, 0,14,50.00,60.00,Wednesday
148,31.983597839571155
596,1.648465656875546
597,58.97648300874846
2,1, 5, 3, 0,15, 0.00,10.00,Wednesday
148,31.854176005181836
596,0.6377879933960716
597,13.539046343646419
2,1, 5, 3, 0,15,10.00,20.00,Wednesday
148,31.899605358021377
596,0.6964330578262066
597,15.199321981206765
2,1, 5, 3, 0,15,20.00,30.00,Wednesday
148,32.08323141018532
596,0.8290194277648244
597,19.49797424240532
2,1, 5, 3, 0,15,30.00,40.00,Wednesday
148,32.20781070033668
596,0.9200458422164973
597,22.876926160262444
2,1, 5, 3, 0,15,40.00,50.00,Wednesday
148,32.29339544075702
596,0.9629012011670515
597,24.583941098717717
2,1, 5, 3, 0,15,50.00,60.00,Wednesday
148,32.40417528113184
596,1.0401212684658879
597,27.839151841177896
2,1, 5, 3, 0,16, 0.00,10.00,Wednesday
148,32.516654481384637
596,1.1262920297279207
597,31.727458528719298
2,1, 5, 3, 0,16,10.00,20.00,Wednesday
148,32.61404946607531
596,1.171934141240261
597,33.88744715290257
2,1, 5, 3, 0,16,20.00,30.00,Wednesday
148,32.64555998551969
596,1.1873156978036317
597,34.62990890098082
2,1, 5, 3, 0,16,30.00,40.00,Wednesday
148,32.678884510117629
596,1.2108069617928954
597,35.77725868939845
2,1, 5, 3, 0,16,40.00,50.00,Wednesday
148,32.746783953233848
596,1.2369191666831759
597,37.07085303540165
2,1, 5, 3, 0,16,50.00,60.00,Wednesday
148,32.624992399230567
596,1.1445567970658333
597,32.583896002406209
2,1, 5, 3, 0,17, 0.00,10.00,Wednesday
148,32.46620441817733
596,2.0131275606896508
597,77.35152041175114
2,1, 5, 3, 0,17,10.00,20.00,Wednesday
148,32.31794883324605
596,1.9698643877922313
597,75.38204601388057
2,1, 5, 3, 0,17,20.00,30.00,Wednesday
148,32.14471379410216
596,1.9161872283905604
597,72.83990909455514
2,1, 5, 3, 0,17,30.00,40.00,Wednesday
148,31.96866595397587
596,1.8702226284198012
597,70.58483284329846
2,1, 5, 3, 0,17,40.00,50.00,Wednesday
148,31.893544164950624
596,1.8461394093559829
597,69.37741802914337
2,1, 5, 3, 0,17,50.00,60.00,Wednesday
148,31.967246825158175
596,1.8663472109872897
597,70.39168190381577
2,1, 5, 3, 0,18, 0.00,10.00,Wednesday
148,31.939740945517558
596,1.855401743116037
597,69.84376820828905
2,1, 5, 3, 0,18,10.00,20.00,Wednesday
148,31.862676576777284
596,1.8395568395412814
597,69.04453375490808
2,1, 5, 3, 0,18,20.00,30.00,Wednesday
148,31.840441254495958
596,1.8396895091295165
597,69.05125468697372
2,1, 5, 3, 0,18,30.00,40.00,Wednesday
148,31.866639697568919
596,1.848941108939306
597,69.51873665101059
2,1, 5, 3, 0,18,40.00,50.00,Wednesday
148,31.92395914828038
596,1.866770804101819
597,70.41281559887452
2,1, 5, 3, 0,18,50.00,60.00,Wednesday
148,31.991130998018755
596,1.8849584279664223
597,71.31510346840752
2,1, 5, 3, 0,19, 0.00,10.00,Wednesday
148,30.529701829879487
596,-20.427148310379516
597,100.0
2,1, 5, 3, 0,19,10.00,20.00,Wednesday
148,30.0877923816725
596,-21.221977986298744
597,100.0
2,1, 5, 3, 0,19,20.00,30.00,Wednesday
148,29.8449487918621
596,-21.698330430100027
597,100.0
2,1, 5, 3, 0,19,30.00,40.00,Wednesday
148,29.35274153987288
596,-22.437220130645718
597,100.0
2,1, 5, 3, 0,19,40.00,50.00,Wednesday
148,29.104117609801198
596,-22.904161426672908
597,100.0
2,1, 5, 3, 0,19,50.00,60.00,Wednesday
148,29.043235436878395
596,-23.186720075888105
597,100.0
2,1, 5, 3, 0,20, 0.00,10.00,Wednesday
148,29.02203509483
596,-23.33654344942536
597,100.0
2,1, 5, 3, 0,20,10.00,20.00,Wednesday
148,28.960073206707699
596,-23.537217890373499
597,100.0
2,1, 5, 3, 0,20,20.00,30.00,Wednesday
148,28.856634493089016
596,-23.79900404413871
597,100.0
2,1, 5, 3, 0,20,30.00,40.00,Wednesday
148,28.740978475722966
596,-24.08783637684346
597,100.0
2,1, 5, 3, 0,20,40.00,50.00,Wednesday
148,28.55806589700792
596,-24.517714998747917
597,100.0
2,1, 5, 3, 0,20,50.00,60.00,Wednesday
148,28.44857778376464
596,-24.851095206699467
597,100.0
2,1, 5, 3, 0,21, 0.00,10.00,Wednesday
148,28.36870122150084
596,-25.11283451301098
597,100.0
2,1, 5, 3, 0,21,10.00,20.00,Wednesday
148,28.27593950190583
596,-25.355223426448445
597,100.0
2,1, 5, 3, 0,21,20.00,30.00,Wednesday
148,28.113689763803447
596,-25.782288383630286
597,100.0
2,1, 5, 3, 0,21,30.00,40.00,Wednesday
148,27.846393608729089
596,-26.36999629753292
597,100.0
2,1, 5, 3, 0,21,40.00,50.00,Wednesday
148,27.83924491912355
596,-26.501605681357618
597,100.0
2,1, 5, 3, 0,21,50.00,60.00,Wednesday
148,27.753235242215177
596,-26.798961731319929
597,100.0
2,1, 5, 3, 0,22, 0.00,10.00,Wednesday
148,27.72927643601195
596,-26.925949954152885
597,100.0
2,1, 5, 3, 0,22,10.00,20.00,Wednesday
148,27.67942448075614
596,-27.119043840081507
597,100.0
2,1, 5, 3, 0,22,20.00,30.00,Wednesday
148,27.54551840885572
596,-27.510094622638893
597,100.0
2,1, 5, 3, 0,22,30.00,40.00,Wednesday
148,27.447523648453033
596,-27.776539416066684
597,100.0
2,1, 5, 3, 0,22,40.00,50.00,Wednesday
148,27.447290602103107
596,-27.854320736333187
597,100.0
2,1, 5, 3, 0,22,50.00,60.00,Wednesday
148,27.419358277082745
596,-28.00695706761293
597,100.0
2,1, 5, 3, 0,23, 0.00,10.00,Wednesday
148,27.490139543016615
596,-27.98322177398431
597,100.0
2,1, 5, 3, 0,23,10.00,20.00,Wednesday
148,27.45448955204314
596,-28.0582574936521
597,100.0
2,1, 5, 3, 0,23,20.00,30.00,Wednesday
148,27.39348639475308
596,-28.25569867078178
597,100.0
2,1, 5, 3, 0,23,30.00,40.00,Wednesday
148,27.425501541486534
596,-28.339320857384949
597,100.0
2,1, 5, 3, 0,23,40.00,50.00,Wednesday
148,27.41634800928331
596,-28.42927349682123
597,100.0
2,1, 5, 3, 0,23,50.00,60.00,Wednesday
148,27.372743064013649
596,-28.543654901571313
597,100.0
2,1, 5, 3, 0,24, 0.00,10.00,Wednesday
148,27.355537669187595
596,-28.63553043831888
597,100.0
2,1, 5, 3, 0,24,10.00,20.00,Wednesday
148,27.337491589659764
596,-28.74492527042326
597,100.0
2,1, 5, 3, 0,24,20.00,30.00,Wednesday
148,27.270695694734419
596,-28.932263912514587
597,100.0
2,1, 5, 3, 0,24,30.00,40.00,Wednesday
148,27.218737677287665
596,-29.086986891402309
597,100.0
2,1, 5, 3, 0,24,40.00,50.00,Wednesday
148,27.130437532727269
596,-29.31060103930533
597,100.0
2,1, 5, 3, 0,24,50.00,60.00,Wednesday
148,27.072114501696228
596,-29.479843654752654
597,100.0
2,2, 5, 4, 0, 1, 0.00,10.00,Thursday
148,27.135756292092926
596,-29.464958931430315
597,100.0
2,2, 5, 4, 0, 1,10.00,20.00,Thursday
148,27.141059181553709
596,-29.55825471739046
597,100.0
2,2, 5, 4, 0, 1,20.00,30.00,Thursday
148,27.056116626996628
596,-29.77122438510503
597,100.0
2,2, 5, 4, 0, 1,30.00,40.00,Thursday
148,26.917433519043589
596,-30.099473290530598
597,100.0
2,2, 5, 4, 0, 1,40.00,50.00,Thursday
148,26.856948617417829
596,-30.25862538129227
597,100.0
2,2, 5, 4, 0, 1,50.00,60.00,Thursday
148,26.854471996077537
596,-30.325563706107688
597,100.0
2,2, 5, 4, 0, 2, 0.00,10.00,Thursday
148,26.873701585671858
596,-30.353837918139094
597,100.0
2,2, 5, 4, 0, 2,10.00,20.00,Thursday
148,26.847001597422194
596,-30.46273745496863
597,100.0
2,2, 5, 4, 0, 2,20.00,30.00,Thursday
148,26.821793895866145
596,-30.552452464771226
597,100.0
2,2, 5, 4, 0, 2,30.00,40.00,Thursday
148,26.771367704007639
596,-30.703535896521108
597,100.0
2,2, 5, 4, 0, 2,40.00,50.00,Thursday
148,26.711301693938017
596,-30.862060868904867
597,100.0
2,2, 5, 4, 0, 2,50.00,60.00,Thursday
148,26.65970418848033
596,-31.018439542090556
597,100.0
2,2, 5, 4, 0, 3, 0.00,10.00,Thursday
148,26.633904718373349
596,-31.141803027021827
597,100.0
2,2, 5, 4, 0, 3,10.00,20.00,Thursday
148,26.54953386486702
596,-31.38248181226005
597,100.0
2,2, 5, 4, 0, 3,20.00,30.00,Thursday
148,26.51564413183042
596,-31.526746055209946
597,100.0
2,2, 5, 4, 0, 3,30.00,40.00,Thursday
148,26.404988907019836
596,-31.79955553897463
597,100.0
2,2, 5, 4, 0, 3,40.00,50.00,Thursday
148,26.29564919842792
596,-32.0541576152853
597,100.0
2,2, 5, 4, 0, 3,50.00,60.00,Thursday
148,26.27327723261528
596,-32.193555424864488
597,100.0
2,2, 5, 4, 0, 4, 0.00,10.00,Thursday
148,26.20121396461199
596,-32.418596901981448
597,100.0
2,2, 5, 4, 0, 4,10.00,20.00,Thursday
148,26.098128815111008
596,-32.68693931708522
597,100.0
2,2, 5, 4, 0, 4,20.00,30.00,Thursday
148,26.032962876166559
596,-32.88639371756323
597,100.0
2,2, 5, 4, 0, 4,30.00,40.00,Thursday
148,25.938042051225869
596,-33.135323418882958
597,100.0
2,2, 5, 4, 0, 4,40.00,50.00,Thursday
148,25.852952715628378
596,-33.34353196710286
597,100.0
2,2, 5, 4, 0, 4,50.00,60.00,Thursday
148,25.83766230394027
596,-33.416219363247467
597,100.0
2,2, 5, 4, 0, 5, 0.00,10.00,Thursday
148,25.758952660416946
596,-33.66022077534504
597,100.0
2,2, 5, 4, 0, 5,10.00,20.00,Thursday
148,25.667423526060046
596,-33.901988156395358
597,100.0
2,2, 5, 4, 0, 5,20.00,30.00,Thursday
148,25.578671340483685
596,-34.091798738810599
597,100.0
2,2, 5, 4, 0, 5,30.00,40.00,Thursday
148,25.535017134349844
596,-34.227861851929748
597,100.0
2,2, 5, 4, 0, 5,40.00,50.00,Thursday
148,25.510444832575098
596,-34.374114210391699
597,100.0
2,2, 5, 4, 0, 5,50.00,60.00,Thursday
148,25.447883500464596
596,-34.57254191828155
597,100.0
2,2, 5, 4, 0, 6, 0.00,10.00,Thursday
148,25.420043863613388
596,-34.66350248083736
597,100.0
2,2, 5, 4, 0, 6,10.00,20.00,Thursday
148,25.253192185027499
596,-35.0880205100758
597,100.0
2,2, 5, 4, 0, 6,20.00,30.00,Thursday
148,25.187811974981288
596,-35.2810725576312
597,100.0
2,2, 5, 4, 0, 6,30.00,40.00,Thursday
148,25.00453005047689
596,-35.734234995507758
597,100.0
2,2, 5, 4, 0, 6,40.00,50.00,Thursday
148,24.831546841286824
596,-36.12425647830177
597,100.0
2,2, 5, 4, 0, 6,50.00,60.00,Thursday
148,24.802560667148243
596,-36.195509567329668
597,100.0
2,2, 5, 4, 0, 7, 0.00,10.00,Thursday
148,24.91371810322923
596,-36.03762996725579
597,100.0
2,2, 5, 4, 0, 7,10.00,20.00,Thursday
148,25.037571359058935
596,-35.84761608443911
597,100.0
2,2, 5, 4, 0, 7,20.00,30.00,Thursday
148,24.95085661813525
596,-36.05515619184789
597,100.0
2,2, 5, 4, 0, 7,30.00,40.00,Thursday
148,24.99039183731585
596,-36.04139484967673
597,100.0
2,2, 5, 4, 0, 7,40.00,50.00,Thursday
148,25.04063794657926
596,-35.948971861864809
597,100.0
2,2, 5, 4, 0, 7,50.00,60.00,Thursday
148,25.071676338073244
596,-35.89756850892514
597,100.0
2,2, 5, 4, 0, 8, 0.00,10.00,Thursday
148,25.078476286590936
596,-35.892614297813789
597,100.0
2,2, 5, 4, 0, 8,10.00,20.00,Thursday
148,25.059838853718128
596,-35.91206292980462
597,100.0
2,2, 5, 4, 0, 8,20.00,30.00,Thursday
148,25.034576958170164
596,-35.939826395103839
597,100.0
2,2, 5, 4, 0, 8,30.00,40.00,Thursday
148,25.07208980493164
596,-35.80711099808318
597,100.0
2,2, 5, 4, 0, 8,40.00,50.00,Thursday
148,25.174787843193028
596,-35.5245379271504
597,100.0
2,2, 5, 4, 0, 8,50.00,60.00,Thursday
148,25.33400089882406
596,-35.15714981104178
597,100.0
2,2, 5, 4, 0, 9, 0.00,10.00,Thursday
148,25.405078178497186
596,-34.9568384718637
597,100.0
2,2, 5, 4, 0, 9,10.00,20.00,Thursday
148,25.485387134212453
596,-34.81728426035256
597,100.0
2,2, 5, 4, 0, 9,20.00,30.00,Thursday
148,25.620024269983909
596,-34.42494520804317
597,100.0
2,2, 5, 4, 0, 9,30.00,40.00,Thursday
148,25.762422171677068
596,-34.0575533413421
597,100.0
2,2, 5, 4, 0, 9,40.00,50.00,Thursday
148,25.882309514341189
596,-33.70817011747353
597,100.0
2,2, 5, 4, 0, 9,50.00,60.00,Thursday
148,25.945137790884574
596,-33.587407034477489
597,100.0
2,2, 5, 4, 0,10, 0.00,10.00,Thursday
148,27.853897182536565
596,0.12631252382147438
597,5.330508041783233
2,2, 5, 4, 0,10,10.00,20.00,Thursday
148,28.12009827052397
596,0.2192441435013926
597,5.997121563434817
2,2, 5, 4, 0,10,20.00,30.00,Thursday
148,28.395713948404553
596,0.2930638506858398
597,6.784417001072427
2,2, 5, 4, 0,10,30.00,40.00,Thursday
148,28.824397607816385
596,0.4011941684880703
597,8.353778213885079
2,2, 5, 4, 0,10,40.00,50.00,Thursday
148,28.985152586491549
596,0.46280456315076259
597,9.47128686563859
2,2, 5, 4, 0,10,50.00,60.00,Thursday
148,29.04627927042439
596,0.5029349449494804
597,10.287041291232427
2,2, 5, 4, 0,11, 0.00,10.00,Thursday
148,29.131516801044336
596,0.544706593798476
597,11.210088715924713
2,2, 5, 4, 0,11,10.00,20.00,Thursday
148,29.235275342745167
596,0.5881423127846285
597,12.250094943983541
2,2, 5, 4, 0,11,20.00,30.00,Thursday
148,29.319918730445907
596,0.6223366268574776
597,13.126418413087379
2,2, 5, 4, 0,11,30.00,40.00,Thursday
148,29.46524719254931
596,0.6784555667003455
597,14.674544796429828
2,2, 5, 4, 0,11,40.00,50.00,Thursday
148,29.592781634189014
596,0.7198032668499363
597,15.902377738961519
2,2, 5, 4, 0,11,50.00,60.00,Thursday
148,29.70753287003879
596,0.7717486334359872
597,17.5491560967113
2,2, 5, 4, 0,12, 0.00,10.00,Thursday
148,29.882118071631824
596,0.8400905657230373
597,19.890642578720717
2,2, 5, 4, 0,12,10.00,20.00,Thursday
148,30.03488362566475
596,0.8904466360236975
597,21.74088641710928
2,2, 5, 4, 0,12,20.00,30.00,Thursday
148,30.173221755449839
596,0.9471484433380448
597,23.948025731880507
2,2, 5, 4, 0,12,30.00,40.00,Thursday
148,30.372977479041368
596,1.0103230611660566
597,26.55632652478431
2,2, 5, 4, 0,12,40.00,50.00,Thursday
148,30.43240928834907
596,1.0376242842870063
597,27.730397511250204
2,2, 5, 4, 0,12,50.00,60.00,Thursday
148,30.472961572827658
596,1.0555080944749976
597,28.51431542080104
2,2, 5, 4, 0,13, 0.00,10.00,Thursday
148,30.626708223067014
596,1.115749359534755
597,31.238072895906784
2,2, 5, 4, 0,13,10.00,20.00,Thursday
148,30.82496193703099
596,1.193750870390589
597,34.94262067405869
2,2, 5, 4, 0,13,20.00,30.00,Thursday
148,30.947632463551927
596,1.2353852558180676
597,36.99435098335946
2,2, 5, 4, 0,13,30.00,40.00,Thursday
148,31.067611291452537
596,1.2774578258933343
597,39.114642495385847
2,2, 5, 4, 0,13,40.00,50.00,Thursday
148,31.1686747918629
596,1.3135803978159276
597,40.969038996911148
2,2, 5, 4, 0,13,50.00,60.00,Thursday
148,31.314981895024635
596,1.366708213854645
597,43.74603134263429
2,2, 5, 4, 0,14, 0.00,10.00,Thursday
148,31.405400509814116
596,1.410609630184829
597,46.07807613444033
2,2, 5, 4, 0,14,10.00,20.00,Thursday
148,31.475302600516977
596,1.4335727464413418
597,47.308833165412199
2,2, 5, 4, 0,14,20.00,30.00,Thursday
148,31.525278411373898
596,1.4504651278828873
597,48.21822117846401
2,2, 5, 4, 0,14,30.00,40.00,Thursday
148,31.57033469588165
596,1.4683964869123159
597,49.186729548268349
2,2, 5, 4, 0,14,40.00,50.00,Thursday
148,31.61461350714524
596,1.4794082172987962
597,49.782904870745699
2,2, 5, 4, 0,14,50.00,60.00,Thursday
148,31.76988917867478
596,1.5537269645725245
597,53.824559046522818
2,2, 5, 4, 0,15, 0.00,10.00,Thursday
148,31.95285514851824
596,0.6815827137766342
597,14.764824751158742
2,2, 5, 4, 0,15,10.00,20.00,Thursday
148,31.971511238634127
596,0.6951178386370311
597,15.16045615037578
2,2, 5, 4, 0,15,20.00,30.00,Thursday
148,31.999533124825136
596,0.7064646616465313
597,15.498221420321685
2,2, 5, 4, 0,15,30.00,40.00,Thursday
148,32.03063055296
596,0.714657309098495
597,15.745548129060794
2,2, 5, 4, 0,15,40.00,50.00,Thursday
148,32.063290654156748
596,0.748891089318171
597,16.810276483346699
2,2, 5, 4, 0,15,50.00,60.00,Thursday
148,32.154146583298267
596,0.8160995218556194
597,19.04623250898814
2,2, 5, 4, 0,16, 0.00,10.00,Thursday
148,32.316078367593778
596,0.9256288374478824
597,23.0951695994178
2,2, 5, 4, 0,16,10.00,20.00,Thursday
148,32.47017867614488
596,1.0284788032078618
597,27.33402609895643
2,2, 5, 4, 0,16,20.00,30.00,Thursday
148,32.604817650696748
596,1.096300229932621
597,30.345008246612978
2,2, 5, 4, 0,16,30.00,40.00,Thursday
148,32.654398982592649
596,1.1343945642713842
597,32.10605490952226
2,2, 5, 4, 0,16,40.00,50.00,Thursday
148,32.66492530858017
596,1.1211494456878282
597,31.48828330847421
2,2, 5, 4, 0,16,50.00,60.00,Thursday
148,32.64454285724722
596,1.106045256387319
597,30.79088383280579
2,2, 5, 4, 0,17, 0.00,10.00,Thursday
148,32.66323478175474
596,2.013489227418466
597,77.3676670614761
2,2, 5, 4, 0,17,10.00,20.00,Thursday
148,32.734668091652178
596,2.032567508315515
597,78.21169234300942
2,2, 5, 4, 0,17,20.00,30.00,Thursday
148,32.699053513139947
596,2.021316644885823
597,77.71579540002675
2,2, 5, 4, 0,17,30.00,40.00,Thursday
148,32.74997652786617
596,2.0372069387800164
597,78.41462038961382
2,2, 5, 4, 0,17,40.00,50.00,Thursday
148,32.727258498617647
596,2.028832269916851
597,78.04764865409965
2,2, 5, 4, 0,17,50.00,60.00,Thursday
148,32.71115607931427
596,2.0077322189012709
597,77.11000617275295
2,2, 5, 4, 0,18, 0.00,10.00,Thursday
148,32.666190996729628
596,1.997389312879
597,76.64370445502959
2,2, 5, 4, 0,18,10.00,20.00,Thursday
148,32.68136579144361
596,2.003392076170534
597,76.91486234190957
2,2, 5, 4, 0,18,20.00,30.00,Thursday
148,32.72694362046078
596,2.0200527235776914
597,77.65975430440713
2,2, 5, 4, 0,18,30.00,40.00,Thursday
148,32.80540410285586
596,2.0386060064761328
597,78.47563499134594
2,2, 5, 4, 0,18,40.00,50.00,Thursday
148,32.864056503627747
596,2.05014638032057
597,78.97570512481788
2,2, 5, 4, 0,18,50.00,60.00,Thursday
148,32.82537370197331
596,2.032799737010662
597,78.22187179027206
2,2, 5, 4, 0,19, 0.00,10.00,Thursday
148,31.364516833318644
596,-18.72112711716638
597,100.0
2,2, 5, 4, 0,19,10.00,20.00,Thursday
148,30.87625686810133
596,-19.540227931624665
597,100.0
2,2, 5, 4, 0,19,20.00,30.00,Thursday
148,30.68263783902787
596,-19.810514082461045
597,100.0
2,2, 5, 4, 0,19,30.00,40.00,Thursday
148,30.209642581779698
596,-20.548317367486985
597,100.0
2,2, 5, 4, 0,19,40.00,50.00,Thursday
148,30.064555504412924
596,-20.869937702125918
597,100.0
2,2, 5, 4, 0,19,50.00,60.00,Thursday
148,30.013111209786176
596,-21.127475922427814
597,100.0
2,2, 5, 4, 0,20, 0.00,10.00,Thursday
148,29.945758509667294
596,-21.344787849138826
597,100.0
2,2, 5, 4, 0,20,10.00,20.00,Thursday
148,29.846382259201979
596,-21.603395555862919
597,100.0
2,2, 5, 4, 0,20,20.00,30.00,Thursday
148,29.743649710527867
596,-21.865542090337347
597,100.0
2,2, 5, 4, 0,20,30.00,40.00,Thursday
148,29.65783688801284
596,-22.089656660782969
597,100.0
2,2, 5, 4, 0,20,40.00,50.00,Thursday
148,29.582784071824844
596,-22.294880922853488
597,100.0
2,2, 5, 4, 0,20,50.00,60.00,Thursday
148,29.52636779080192
596,-22.438084098845889
597,100.0
2,2, 5, 4, 0,21, 0.00,10.00,Thursday
148,29.474010501637936
596,-22.588438632183725
597,100.0
2,2, 5, 4, 0,21,10.00,20.00,Thursday
148,29.424691901251703
596,-22.720007468598383
597,100.0
2,2, 5, 4, 0,21,20.00,30.00,Thursday
148,29.36664367752886
596,-22.886966026485927
597,100.0
2,2, 5, 4, 0,21,30.00,40.00,Thursday
148,29.323893573520068
596,-22.995798505343449
597,100.0
2,2, 5, 4, 0,21,40.00,50.00,Thursday
148,29.282381654846579
596,-23.120212458338359
597,100.0
2,2, 5, 4, 0,21,50.00,60.00,Thursday
148,29.217751807290555
596,-23.30710253573098
597,100.0
2,2, 5, 4, 0,22, 0.00,10.00,Thursday
148,29.139318815979324
596,-23.511914295631195
597,100.0
2,2, 5, 4, 0,22,10.00,20.00,Thursday
148,29.069792969087279
596,-23.665938673798445
597,100.0
2,2, 5, 4, 0,22,20.00,30.00,Thursday
148,28.971889243507304
596,-23.926030688466278
597,100.0
2,2, 5, 4, 0,22,30.00,40.00,Thursday
148,28.928270225547544
596,-23.998787702891968
597,100.0
2,2, 5, 4, 0,22,40.00,50.00,Thursday
148,28.897954401306554
596,-24.11558331142835
597,100.0
2,2, 5, 4, 0,22,50.00,60.00,Thursday
148,28.877599104717544
596,-24.2354724388872
597,100.0
2,2, 5, 4, 0,23, 0.00,10.00,Thursday
148,28.833269744885489
596,-24.382233104566553
597,100.0
2,2, 5, 4, 0,23,10.00,20.00,Thursday
148,28.77473654958701
596,-24.585980754008277
597,100.0
2,2, 5, 4, 0,23,20.00,30.00,Thursday
148,28.700901833509158
596,-24.79468920518747
597,100.0
2,2, 5, 4, 0,23,30.00,40.00,Thursday
148,28.644430635273765
596,-24.992722920839609
597,100.0
2,2, 5, 4, 0,23,40.00,50.00,Thursday
148,28.562844131020829
596,-25.214070555546916
597,100.0
2,2, 5, 4, 0,23,50.00,60.00,Thursday
148,28.499573069286716
596,-25.353385720119346
597,100.0
2,2, 5, 4, 0,24, 0.00,10.00,Thursday
148,28.468012425799164
596,-25.444188990931889
597,100.0
2,2, 5, 4, 0,24,10.00,20.00,Thursday
148,28.415063977664805
596,-25.600796513507129
597,100.0
2,2, 5, 4, 0,24,20.00,30.00,Thursday
148,28.364966201712315
596,-25.760715633615413
597,100.0
2,2, 5, 4, 0,24,30.00,40.00,Thursday
148,28.322088819371776
596,-25.909284893276849
597,100.0
2,2, 5, 4, 0,24,40.00,50.00,Thursday
148,28.26272395207815
596,-26.13455451072719
597,100.0
2,2, 5, 4, 0,24,50.00,60.00,Thursday
148,28.170611739771539
596,-26.351830865264217
597,100.0
2,3, 5, 5, 0, 1, 0.00,10.00,Friday
148,28.075617482507917
596,-26.608129666516846
597,100.0
2,3, 5, 5, 0, 1,10.00,20.00,Friday
148,28.04610785021988
596,-26.705479582562057
597,100.0
2,3, 5, 5, 0, 1,20.00,30.00,Friday
148,27.993938788209357
596,-26.86629670292823
597,100.0
2,3, 5, 5, 0, 1,30.00,40.00,Friday
148,27.95629460324046
596,-26.980195600290015
597,100.0
2,3, 5, 5, 0, 1,40.00,50.00,Friday
148,27.895784531876389
596,-27.185560619414237
597,100.0
2,3, 5, 5, 0, 1,50.00,60.00,Friday
148,27.85216449762304
596,-27.316195226107387
597,100.0
2,3, 5, 5, 0, 2, 0.00,10.00,Friday
148,27.7967039988714
596,-27.494221834567897
597,100.0
2,3, 5, 5, 0, 2,10.00,20.00,Friday
148,27.725281227841579
596,-27.724749787151468
597,100.0
2,3, 5, 5, 0, 2,20.00,30.00,Friday
148,27.625727130713135
596,-28.000540119256873
597,100.0
2,3, 5, 5, 0, 2,30.00,40.00,Friday
148,27.429586670324185