Program Version,EnergyPlus, Version 9.5.0-de239b2e5f, YMD=2021.12.09 19:00
1,5,Environment Title[],Latitude[deg],Longitude[deg],Time Zone[],Elevation[m]
2,8,Day of Simulation[],Month[],Day of Month[],DST Indicator[1=yes 0=no],Hour[],StartMinute[],EndMinute[],DayType
3,5,Cumulative Day of Simulation[],Month[],Day of Month[],DST Indicator[1=yes 0=no],DayType  ! When Daily Report Variables Requested
4,2,Cumulative Days of Simulation[],Month[]  ! When Monthly Report Variables Requested
5,1,Cumulative Days of Simulation[] ! When Run Period Report Variables Requested
6,1,Calendar Year of Simulation[] ! When Annual Report Variables Requested
148,1,THERMAL ZONE: JORGE,Zone Mean Air Temperature [C] !TimeStep
596,1,JORGE,Zone Thermal Comfort Fanger Model PMV [] !TimeStep
597,1,JORGE,Zone Thermal Comfort Fanger Model PPD [%] !TimeStep
End of Data Dictionary
1,RUN PERIOD 1,  18.85, -99.14,  -6.00,1280.00
2,1, 5, 3, 0, 1, 0.00,10.00,Wednesday
148,26.876478506440554
596,-0.9087046337666883
597,22.437450022823897
2,1, 5, 3, 0, 1,10.00,20.00,Wednesday
148,26.767559077795917
596,-0.9523399843584341
597,24.156522975187174
2,1, 5, 3, 0, 1,20.00,30.00,Wednesday
148,26.71844310747444
596,-0.9760438098457074
597,25.12190981939301
2,1, 5, 3, 0, 1,30.00,40.00,Wednesday
148,26.676360580570898
596,-1.002902668890644
597,26.24202917882924
2,1, 5, 3, 0, 1,40.00,50.00,Wednesday
148,26.60503169365381
596,-1.036941550446795
597,27.700701248291098
2,1, 5, 3, 0, 1,50.00,60.00,Wednesday
148,26.488724842352434
596,-1.0846173360671819
597,29.814751795224625
2,1, 5, 3, 0, 2, 0.00,10.00,Wednesday
148,26.377914506067954
596,-1.1314101613239356
597,31.9663578052928
2,1, 5, 3, 0, 2,10.00,20.00,Wednesday
148,26.30710311069881
596,-1.1673444432915377
597,33.66729029491678
2,1, 5, 3, 0, 2,20.00,30.00,Wednesday
148,26.146042853581606
596,-1.2292762602084043
597,36.69029739452223
2,1, 5, 3, 0, 2,30.00,40.00,Wednesday
148,26.06633517015505
596,-1.2654762948560179
597,38.50628893318849
2,1, 5, 3, 0, 2,40.00,50.00,Wednesday
148,26.017218946491924
596,-1.2907444333323044
597,39.79327160078249
2,1, 5, 3, 0, 2,50.00,60.00,Wednesday
148,26.013306682150576
596,-1.306179316591572
597,40.58671365353637
2,1, 5, 3, 0, 3, 0.00,10.00,Wednesday
148,25.99827576273679
596,-1.3256936176106824
597,41.59729540014675
2,1, 5, 3, 0, 3,10.00,20.00,Wednesday
148,26.033573321409276
596,-1.3270191883808889
597,41.66623127629759
2,1, 5, 3, 0, 3,20.00,30.00,Wednesday
148,26.046650239621778
596,-1.3337692447820862
597,42.01781719010199
2,1, 5, 3, 0, 3,30.00,40.00,Wednesday
148,25.98769170750071
596,-1.365489624976508
597,43.681743786346789
2,1, 5, 3, 0, 3,40.00,50.00,Wednesday
148,25.93207817745901
596,-1.3922133810259037
597,45.09724895434635
2,1, 5, 3, 0, 3,50.00,60.00,Wednesday
148,25.874953547545159
596,-1.4243205604405108
597,46.812140159654969
2,1, 5, 3, 0, 4, 0.00,10.00,Wednesday
148,25.821471931438194
596,-1.4536273525911
597,48.3887946330142
2,1, 5, 3, 0, 4,10.00,20.00,Wednesday
148,25.750545651436977
596,-1.4855042516832878
597,50.11335059283476
2,1, 5, 3, 0, 4,20.00,30.00,Wednesday
148,25.720216824237114
596,-1.5112997149060823
597,51.514302339230287
2,1, 5, 3, 0, 4,30.00,40.00,Wednesday
148,25.54959755422524
596,-1.5786019090838524
597,55.180074294429719
2,1, 5, 3, 0, 4,40.00,50.00,Wednesday
148,25.31848751905487
596,-1.6694390994759548
597,60.10947539142872
2,1, 5, 3, 0, 4,50.00,60.00,Wednesday
148,25.186815145049076
596,-1.7232930671841252
597,62.994817550704507
2,1, 5, 3, 0, 5, 0.00,10.00,Wednesday
148,25.14280447895368
596,-1.7533453347070352
597,64.5856137592317
2,1, 5, 3, 0, 5,10.00,20.00,Wednesday
148,25.193299819722389
596,-1.7519136783862866
597,64.51019963817552
2,1, 5, 3, 0, 5,20.00,30.00,Wednesday
148,25.243029953887473
596,-1.745309791455392
597,64.16183456798413
2,1, 5, 3, 0, 5,30.00,40.00,Wednesday
148,25.270718772652875
596,-1.7482553590154225
597,64.31731792919794
2,1, 5, 3, 0, 5,40.00,50.00,Wednesday
148,25.241642522844555
596,-1.7638988700647456
597,65.1403082469026
2,1, 5, 3, 0, 5,50.00,60.00,Wednesday
148,25.109553274637123
596,-1.8223029882758298
597,68.16645607923407
2,1, 5, 3, 0, 6, 0.00,10.00,Wednesday
148,24.98409189182348
596,-1.8728302331220122
597,70.7145424011199
2,1, 5, 3, 0, 6,10.00,20.00,Wednesday
148,24.807167671413006
596,-1.9516841871196396
597,74.53276463685276
2,1, 5, 3, 0, 6,20.00,30.00,Wednesday
148,24.724485762789475
596,-1.9889634352361548
597,76.2606513243105
2,1, 5, 3, 0, 6,30.00,40.00,Wednesday
148,24.59797044540839
596,-2.0521149307389017
597,79.06043009015079
2,1, 5, 3, 0, 6,40.00,50.00,Wednesday
148,24.476697396469484
596,-2.1010007051338737
597,81.10904558393082
2,1, 5, 3, 0, 6,50.00,60.00,Wednesday
148,24.3823105486556
596,-2.145180616146236
597,82.86548977674701
2,1, 5, 3, 0, 7, 0.00,10.00,Wednesday
148,24.375479320371054
596,-2.156883861338518
597,83.31514438453204
2,1, 5, 3, 0, 7,10.00,20.00,Wednesday
148,24.452276298203317
596,-2.1386892591753128
597,82.61323071699528
2,1, 5, 3, 0, 7,20.00,30.00,Wednesday
148,24.485902271371406
596,-2.142167235038684
597,82.74863961462255
2,1, 5, 3, 0, 7,30.00,40.00,Wednesday
148,24.319892561566577
596,-2.2091587489721125
597,85.24149391681623
2,1, 5, 3, 0, 7,40.00,50.00,Wednesday
148,24.20253509288214
596,-2.2513480985006555
597,86.69636528195365
2,1, 5, 3, 0, 7,50.00,60.00,Wednesday
148,24.379826599111259
596,-2.1908153331628839
597,84.58096425478176
2,1, 5, 3, 0, 8, 0.00,10.00,Wednesday
148,24.51008468062497
596,-2.149039899060893
597,83.01450173128925
2,1, 5, 3, 0, 8,10.00,20.00,Wednesday
148,24.409451119665158
596,-2.1825777334289535
597,84.27887945466864
2,1, 5, 3, 0, 8,20.00,30.00,Wednesday
148,24.45109846670954
596,-2.1601147653120997
597,83.43810842220118
2,1, 5, 3, 0, 8,30.00,40.00,Wednesday
148,24.54737986036979
596,-2.1190409984055886
597,81.83740974340772
2,1, 5, 3, 0, 8,40.00,50.00,Wednesday
148,24.690063900299508
596,-2.057347936223574
597,79.28483053000909
2,1, 5, 3, 0, 8,50.00,60.00,Wednesday
148,24.89491358694171
596,-1.9731253646999095
597,75.53305951765134
2,1, 5, 3, 0, 9, 0.00,10.00,Wednesday
148,25.063046739923658
596,-1.8895454494599513
597,71.54105003247655
2,1, 5, 3, 0, 9,10.00,20.00,Wednesday
148,25.234920345277556
596,-1.8280530117165009
597,68.4599572605871
2,1, 5, 3, 0, 9,20.00,30.00,Wednesday
148,25.365902572711904
596,-1.7779264029117779
597,65.87411126405445
2,1, 5, 3, 0, 9,30.00,40.00,Wednesday
148,25.44995335378037
596,-1.7366654286450829
597,63.70463067838699
2,1, 5, 3, 0, 9,40.00,50.00,Wednesday
148,25.52727649476033
596,-1.6912538381759772
597,61.28288342784428
2,1, 5, 3, 0, 9,50.00,60.00,Wednesday
148,25.607868039177803
596,-1.6476744686477479
597,58.933662411947917
2,1, 5, 3, 0,10, 0.00,10.00,Wednesday
148,27.648158538648344
596,0.0716317118288784
597,5.106240794250397
2,1, 5, 3, 0,10,10.00,20.00,Wednesday
148,28.003977542166795
596,0.19251993342536828
597,5.768492415652958
2,1, 5, 3, 0,10,20.00,30.00,Wednesday
148,28.289357855010146
596,0.26417104762650986
597,6.448961655522581
2,1, 5, 3, 0,10,30.00,40.00,Wednesday
148,28.78641322057356
596,0.3944294927340343
597,8.240994131115727
2,1, 5, 3, 0,10,40.00,50.00,Wednesday
148,28.966923777152119
596,0.4613279926449648
597,9.442596311794944
2,1, 5, 3, 0,10,50.00,60.00,Wednesday
148,28.95880549336524
596,0.4795697589736522
597,9.803632743677568
2,1, 5, 3, 0,11, 0.00,10.00,Wednesday
148,28.954959731614609
596,0.4911188155067149
597,10.039627975240279
2,1, 5, 3, 0,11,10.00,20.00,Wednesday
148,29.11853824130277
596,0.5539588646642406
597,11.42476318344167
2,1, 5, 3, 0,11,20.00,30.00,Wednesday
148,29.296701208086288
596,0.6194749578962263
597,13.05113460521369
2,1, 5, 3, 0,11,30.00,40.00,Wednesday
148,29.420608937713117
596,0.6707950659001088
597,14.455175980124637
2,1, 5, 3, 0,11,40.00,50.00,Wednesday
148,29.51396162074839
596,0.7136458078173784
597,15.714855498134782
2,1, 5, 3, 0,11,50.00,60.00,Wednesday
148,29.602335001021865
596,0.7510319762354312
597,16.878533087043864
2,1, 5, 3, 0,12, 0.00,10.00,Wednesday
148,29.763997563299449
596,0.8130428800756462
597,18.940384666545215
2,1, 5, 3, 0,12,10.00,20.00,Wednesday
148,29.854652253020036
596,0.844225212295853
597,20.038602778180676
2,1, 5, 3, 0,12,20.00,30.00,Wednesday
148,30.067236392365495
596,0.9238744116738791
597,23.026453107160124
2,1, 5, 3, 0,12,30.00,40.00,Wednesday
148,30.175275902181313
596,0.9655347223449907
597,24.69120106194302
2,1, 5, 3, 0,12,40.00,50.00,Wednesday
148,30.34552273474233
596,1.028967889780466
597,27.35514548573188
2,1, 5, 3, 0,12,50.00,60.00,Wednesday
148,30.50027892370747
596,1.0861298655440115
597,29.88313606129367
2,1, 5, 3, 0,13, 0.00,10.00,Wednesday
148,30.680076870337638
596,1.1538888871377707
597,33.025604743602
2,1, 5, 3, 0,13,10.00,20.00,Wednesday
148,30.811834952257575
596,1.1955682096402865
597,35.03115248927695
2,1, 5, 3, 0,13,20.00,30.00,Wednesday
148,30.912745213382349
596,1.2382281984374837
597,37.13618901127274
2,1, 5, 3, 0,13,30.00,40.00,Wednesday
148,31.008199732688973
596,1.273416592414925
597,38.90906204590347
2,1, 5, 3, 0,13,40.00,50.00,Wednesday
148,31.1269163227375
596,1.306519635897886
597,40.60426779196096
2,1, 5, 3, 0,13,50.00,60.00,Wednesday
148,31.18359837759754
596,1.3250676843203709
597,41.56475643290523
2,1, 5, 3, 0,14, 0.00,10.00,Wednesday
148,31.183099078050849
596,1.3536357069371304
597,43.05775118644162
2,1, 5, 3, 0,14,10.00,20.00,Wednesday
148,31.30793258980111
596,1.4198077369332205
597,46.570259170749249
2,1, 5, 3, 0,14,20.00,30.00,Wednesday
148,31.464621498824994
596,1.4737666798116956
597,49.47734849471951
2,1, 5, 3, 0,14,30.00,40.00,Wednesday
148,31.572503057274479
596,1.5154130278661114
597,51.73802663555078
2,1, 5, 3, 0,14,40.00,50.00,Wednesday
148,31.72637167828273
596,1.575259987592366
597,54.99799243987804
2,1, 5, 3, 0,14,50.00,60.00,Wednesday
148,31.983597839571155
596,1.648465656875546
597,58.97648300874846
2,1, 5, 3, 0,15, 0.00,10.00,Wednesday
148,31.854176005181836
596,1.5976594433865584
597,56.21792477108433
2,1, 5, 3, 0,15,10.00,20.00,Wednesday
148,31.899605358021377
596,1.6322281789652862
597,58.09666494675016
2,1, 5, 3, 0,15,20.00,30.00,Wednesday
148,32.08323141018532
596,1.7065026616666815
597,62.09952115617036
2,1, 5, 3, 0,15,30.00,40.00,Wednesday
148,32.20781070033668
596,1.7580420659025816
597,64.83274339436307
2,1, 5, 3, 0,15,40.00,50.00,Wednesday
148,32.29339544075702
596,1.781222420440309
597,66.04592845455336
2,1, 5, 3, 0,15,50.00,60.00,Wednesday
148,32.40417528113184
596,1.8242303498002959
597,68.2649307763305
2,1, 5, 3, 0,16, 0.00,10.00,Wednesday
148,32.516654481384637
596,1.8732135253826195
597,70.73359112122387
2,1, 5, 3, 0,16,10.00,20.00,Wednesday
148,32.61404946607531
596,1.901133597727447
597,72.10886507149573
2,1, 5, 3, 0,16,20.00,30.00,Wednesday
148,32.64555998551969
596,1.9079378078598953
597,72.4402306609829
2,1, 5, 3, 0,16,30.00,40.00,Wednesday
148,32.678884510117629
596,1.9229818428350692
597,73.16736923356162
2,1, 5, 3, 0,16,40.00,50.00,Wednesday
148,32.746783953233848
596,1.9355161385227518
597,73.76724691324799
2,1, 5, 3, 0,16,50.00,60.00,Wednesday
148,32.624992399230567
596,1.8865949178171429
597,71.39578940839312
2,1, 5, 3, 0,17, 0.00,10.00,Wednesday
148,32.46620441817733
596,1.8492198768546995
597,69.53278574931552
2,1, 5, 3, 0,17,10.00,20.00,Wednesday
148,32.31794883324605
596,1.7964575301039863
597,66.83698688634195
2,1, 5, 3, 0,17,20.00,30.00,Wednesday
148,32.14471379410216
596,1.7327551610591632
597,63.49738328353237
2,1, 5, 3, 0,17,30.00,40.00,Wednesday
148,31.96866595397587
596,1.6786054289311794
597,60.60321247786674
2,1, 5, 3, 0,17,40.00,50.00,Wednesday
148,31.893544164950624
596,1.6502909825630774
597,59.07525230852214
2,1, 5, 3, 0,17,50.00,60.00,Wednesday
148,31.967246825158175
596,1.6752725113739898
597,60.42379688882086
2,1, 5, 3, 0,18, 0.00,10.00,Wednesday
148,31.939740945517558
596,1.662415520010348
597,59.730540431959479
2,1, 5, 3, 0,18,10.00,20.00,Wednesday
148,31.862676576777284
596,1.642434803924156
597,58.64994863293409
2,1, 5, 3, 0,18,20.00,30.00,Wednesday
148,31.840441254495958
596,1.6414708585627449
597,58.597729056157458
2,1, 5, 3, 0,18,30.00,40.00,Wednesday
148,31.866639697568919
596,1.6517741458841518
597,59.15548536122956
2,1, 5, 3, 0,18,40.00,50.00,Wednesday
148,31.92395914828038
596,1.6727639951634137
597,60.28867672367557
2,1, 5, 3, 0,18,50.00,60.00,Wednesday
148,31.991130998018755
596,1.6936227175192043
597,61.40995289732311
2,1, 5, 3, 0,19, 0.00,10.00,Wednesday
148,30.529701829879487
596,0.7242010930039745
597,16.037310703441777
2,1, 5, 3, 0,19,10.00,20.00,Wednesday
148,30.0877923816725
596,0.5834598606958718
597,12.134044396253202
2,1, 5, 3, 0,19,20.00,30.00,Wednesday
148,29.8449487918621
596,0.4994530843530994
597,10.213509120597692
2,1, 5, 3, 0,19,30.00,40.00,Wednesday
148,29.35274153987288
596,0.3675725946260368
597,7.8125107345243809
2,1, 5, 3, 0,19,40.00,50.00,Wednesday
148,29.104117609801198
596,0.28333068010159975
597,6.66747864290511
2,1, 5, 3, 0,19,50.00,60.00,Wednesday
148,29.043235436878395
596,0.23198841198780946
597,6.116683646675867
2,1, 5, 3, 0,20, 0.00,10.00,Wednesday
148,29.02203509483
596,0.20432057558442125
597,5.865763974413667
2,1, 5, 3, 0,20,10.00,20.00,Wednesday
148,28.960073206707699
596,0.16803680279140147
597,5.585236493935227
2,1, 5, 3, 0,20,20.00,30.00,Wednesday
148,28.856634493089016
596,0.12308692844495802
597,5.313832319271157
2,1, 5, 3, 0,20,30.00,40.00,Wednesday
148,28.740978475722966
596,0.07807425352596177
597,5.126216177734264
2,1, 5, 3, 0,20,40.00,50.00,Wednesday
148,28.55806589700792
596,0.011097030361761818
597,5.002549158189453
2,1, 5, 3, 0,20,50.00,60.00,Wednesday
148,28.44857778376464
596,-0.04291445948260215
597,5.038126244113741
2,1, 5, 3, 0,21, 0.00,10.00,Wednesday
148,28.36870122150084
596,-0.0849035771884057
597,5.149270114549694
2,1, 5, 3, 0,21,10.00,20.00,Wednesday
148,28.27593950190583
596,-0.12473075583098728
597,5.3222765530962878
2,1, 5, 3, 0,21,20.00,30.00,Wednesday
148,28.113689763803447
596,-0.19379644545942918
597,5.778733741550198
2,1, 5, 3, 0,21,30.00,40.00,Wednesday
148,27.846393608729089
596,-0.2834407709707874
597,6.668778960992682
2,1, 5, 3, 0,21,40.00,50.00,Wednesday
148,27.83924491912355
596,-0.3085446380838404
597,6.9786558191609349
2,1, 5, 3, 0,21,50.00,60.00,Wednesday
148,27.753235242215177
596,-0.3579139522161005
597,7.665934745085352
2,1, 5, 3, 0,22, 0.00,10.00,Wednesday
148,27.72927643601195
596,-0.38071490727608789
597,8.018340266782474
2,1, 5, 3, 0,22,10.00,20.00,Wednesday
148,27.67942448075614
596,-0.41177395559672749
597,8.534096200095732
2,1, 5, 3, 0,22,20.00,30.00,Wednesday
148,27.54551840885572
596,-0.4716261108991132
597,9.644651067715472
2,1, 5, 3, 0,22,30.00,40.00,Wednesday
148,27.447523648453033
596,-0.5124086675637825
597,10.489766245311941
2,1, 5, 3, 0,22,40.00,50.00,Wednesday
148,27.447290602103107
596,-0.5266365245324169
597,10.801516635596741
2,1, 5, 3, 0,22,50.00,60.00,Wednesday
148,27.419358277082745
596,-0.5516729358125514
597,11.371379112242807
2,1, 5, 3, 0,23, 0.00,10.00,Wednesday
148,27.490139543016615
596,-0.552227973919375
597,11.384320281009068
2,1, 5, 3, 0,23,10.00,20.00,Wednesday
148,27.45448955204314
596,-0.5639912947719158
597,11.661733133643964
2,1, 5, 3, 0,23,20.00,30.00,Wednesday
148,27.39348639475308
596,-0.5950138073106929
597,12.422121743353288
2,1, 5, 3, 0,23,30.00,40.00,Wednesday
148,27.425501541486534
596,-0.6114512045261271
597,12.841943615232495
2,1, 5, 3, 0,23,40.00,50.00,Wednesday
148,27.41634800928331
596,-0.6265882909855449
597,13.238925911761314
2,1, 5, 3, 0,23,50.00,60.00,Wednesday
148,27.372743064013649
596,-0.6441328502710508
597,13.711484885198019
2,1, 5, 3, 0,24, 0.00,10.00,Wednesday
148,27.355537669187595
596,-0.6596310435291057
597,14.14002858908431
2,1, 5, 3, 0,24,10.00,20.00,Wednesday
148,27.337491589659764
596,-0.6781810848919537
597,14.666640771630583
2,1, 5, 3, 0,24,20.00,30.00,Wednesday
148,27.270695694734419
596,-0.7070658515794221
597,15.51627226450357
2,1, 5, 3, 0,24,30.00,40.00,Wednesday
148,27.218737677287665
596,-0.7312640288965271
597,16.255755117720399
2,1, 5, 3, 0,24,40.00,50.00,Wednesday
148,27.130437532727269
596,-0.7657961879326973
597,17.354591214170854
2,1, 5, 3, 0,24,50.00,60.00,Wednesday
148,27.072114501696228
596,-0.7923991330051143
597,18.23584564221106
2,2, 5, 4, 0, 1, 0.00,10.00,Thursday
148,27.135756292092926
596,-0.7937278900467856
597,18.28065101399416
2,2, 5, 4, 0, 1,10.00,20.00,Thursday
148,27.141059181553709
596,-0.8102789383050399
597,18.845011690090517
2,2, 5, 4, 0, 1,20.00,30.00,Thursday
148,27.056116626996628
596,-0.8417616262990316
597,19.95035636041149
2,2, 5, 4, 0, 1,30.00,40.00,Thursday
148,26.917433519043589
596,-0.8969290453515415
597,21.98664592790732
2,2, 5, 4, 0, 1,40.00,50.00,Thursday
148,26.856948617417829
596,-0.9237488523217567
597,23.021539989328276
2,2, 5, 4, 0, 1,50.00,60.00,Thursday
148,26.854471996077537
596,-0.9353823855882899
597,23.479435434679929
2,2, 5, 4, 0, 2, 0.00,10.00,Thursday
148,26.873701585671858
596,-0.9405861286714656
597,23.6860005327203
2,2, 5, 4, 0, 2,10.00,20.00,Thursday
148,26.847001597422194
596,-0.9592618471891696
597,24.436160817893325
2,2, 5, 4, 0, 2,20.00,30.00,Thursday
148,26.821793895866145
596,-0.9745437242226195
597,25.060167545443947
2,2, 5, 4, 0, 2,30.00,40.00,Thursday
148,26.771367704007639
596,-1.0001825274416763
597,26.127336195536289
2,2, 5, 4, 0, 2,40.00,50.00,Thursday
148,26.711301693938017
596,-1.027055653287552
597,27.272622943113775
2,2, 5, 4, 0, 2,50.00,60.00,Thursday
148,26.65970418848033
596,-1.053672173029072
597,28.433306792437436
2,2, 5, 4, 0, 3, 0.00,10.00,Thursday
148,26.633904718373349
596,-1.0748218426278605
597,29.373808678122843
2,2, 5, 4, 0, 3,10.00,20.00,Thursday
148,26.54953386486702
596,-1.115574246887181
597,31.22997535365802
2,2, 5, 4, 0, 3,20.00,30.00,Thursday
148,26.51564413183042
596,-1.1401290947806993
597,32.37529182108142
2,2, 5, 4, 0, 3,30.00,40.00,Thursday
148,26.404988907019836
596,-1.186061302296647
597,34.56909481924248
2,2, 5, 4, 0, 3,40.00,50.00,Thursday
148,26.29564919842792
596,-1.2288115642166584
597,36.6672099886604
2,2, 5, 4, 0, 3,50.00,60.00,Thursday
148,26.27327723261528
596,-1.252659594842017
597,37.859464683311369
2,2, 5, 4, 0, 4, 0.00,10.00,Thursday
148,26.20121396461199
596,-1.2907733267966979
597,39.794751853032128
2,2, 5, 4, 0, 4,10.00,20.00,Thursday
148,26.098128815111008
596,-1.3358509370171097
597,42.12642861133619
2,2, 5, 4, 0, 4,20.00,30.00,Thursday
148,26.032962876166559
596,-1.3695612617235487
597,43.89664621598015
2,2, 5, 4, 0, 4,30.00,40.00,Thursday
148,25.938042051225869
596,-1.4114535096395856
597,46.123184153263718
2,2, 5, 4, 0, 4,40.00,50.00,Thursday
148,25.852952715628378
596,-1.446561066982022
597,48.00777395534293
2,2, 5, 4, 0, 4,50.00,60.00,Thursday
148,25.83766230394027
596,-1.4588576661571807
597,48.67114011330387
2,2, 5, 4, 0, 5, 0.00,10.00,Thursday
148,25.758952660416946
596,-1.500067486955466
597,50.90380194982073
2,2, 5, 4, 0, 5,10.00,20.00,Thursday
148,25.667423526060046
596,-1.5409219106509718
597,53.12683614636121
2,2, 5, 4, 0, 5,20.00,30.00,Thursday
148,25.578671340483685
596,-1.5728726705124703
597,54.86791145249398
2,2, 5, 4, 0, 5,30.00,40.00,Thursday
148,25.535017134349844
596,-1.5959371012199953
597,56.124171996363219
2,2, 5, 4, 0, 5,40.00,50.00,Thursday
148,25.510444832575098
596,-1.6209426163963619
597,57.484043925687128
2,2, 5, 4, 0, 5,50.00,60.00,Thursday
148,25.447883500464596
596,-1.6546672233448213
597,59.31193177610807
2,2, 5, 4, 0, 6, 0.00,10.00,Thursday
148,25.420043863613388
596,-1.670114761733477
597,60.14590118691417
2,2, 5, 4, 0, 6,10.00,20.00,Thursday
148,25.253192185027499
596,-1.7417847004677736
597,63.975552440926808
2,2, 5, 4, 0, 6,20.00,30.00,Thursday
148,25.187811974981288
596,-1.774417955908593
597,65.69096429933959
2,2, 5, 4, 0, 6,30.00,40.00,Thursday
148,25.00453005047689
596,-1.8509478059511769
597,69.61981950295999
2,2, 5, 4, 0, 6,40.00,50.00,Thursday
148,24.831546841286824
596,-1.9167592887598524
597,72.8675398305464
2,2, 5, 4, 0, 6,50.00,60.00,Thursday
148,24.802560667148243
596,-1.9287852056808575
597,73.44579582939056
2,2, 5, 4, 0, 7, 0.00,10.00,Thursday
148,24.91371810322923
596,-1.9025128369176153
597,72.17615736623478
2,2, 5, 4, 0, 7,10.00,20.00,Thursday
148,25.037571359058935
596,-1.8708956793230212
597,70.61833189547575
2,2, 5, 4, 0, 7,20.00,30.00,Thursday
148,24.95085661813525
596,-1.9058842960145979
597,72.34038560196976
2,2, 5, 4, 0, 7,30.00,40.00,Thursday
148,24.99039183731585
596,-1.9038439014597722
597,72.2410400379526
2,2, 5, 4, 0, 7,40.00,50.00,Thursday
148,25.04063794657926
596,-1.8884311028665318
597,71.48622083507978
2,2, 5, 4, 0, 7,50.00,60.00,Thursday
148,25.071676338073244
596,-1.8798645675991237
597,71.06341915408049
2,2, 5, 4, 0, 8, 0.00,10.00,Thursday
148,25.078476286590936
596,-1.879056459441861
597,71.02341711758706
2,2, 5, 4, 0, 8,10.00,20.00,Thursday
148,25.059838853718128
596,-1.8821890296493343
597,71.1783693967283
2,2, 5, 4, 0, 8,20.00,30.00,Thursday
148,25.034576958170164
596,-1.8866951180731738
597,71.40072697506608
2,2, 5, 4, 0, 8,30.00,40.00,Thursday
148,25.07208980493164
596,-1.8639502305145786
597,70.27199278695146
2,2, 5, 4, 0, 8,40.00,50.00,Thursday
148,25.174787843193028
596,-1.8159895882785513
597,67.84322109437622
2,2, 5, 4, 0, 8,50.00,60.00,Thursday
148,25.33400089882406
596,-1.754043748377566
597,64.6223893231529
2,2, 5, 4, 0, 9, 0.00,10.00,Thursday
148,25.405078178497186
596,-1.7200836279918613
597,62.82402089519654
2,2, 5, 4, 0, 9,10.00,20.00,Thursday
148,25.485387134212453
596,-1.6967883946133058
597,61.579647974704
2,2, 5, 4, 0, 9,20.00,30.00,Thursday
148,25.620024269983909
596,-1.6304211376511655
597,57.99862884257017
2,2, 5, 4, 0, 9,30.00,40.00,Thursday
148,25.762422171677068
596,-1.5684131238424577
597,54.624900868470088
2,2, 5, 4, 0, 9,40.00,50.00,Thursday
148,25.882309514341189
596,-1.5092968410825057
597,51.40539380190996
2,2, 5, 4, 0, 9,50.00,60.00,Thursday
148,25.945137790884574
596,-1.4890757891528972
597,50.30707540276389
2,2, 5, 4, 0,10, 0.00,10.00,Thursday
148,27.853897182536565
596,0.12631252382147438
597,5.330508041783233
2,2, 5, 4, 0,10,10.00,20.00,Thursday
148,28.12009827052397
596,0.2192441435013926
597,5.997121563434817
2,2, 5, 4, 0,10,20.00,30.00,Thursday
148,28.395713948404553
596,0.2930638506858398
597,6.784417001072427
2,2, 5, 4, 0,10,30.00,40.00,Thursday
148,28.824397607816385
596,0.4011941684880703
597,8.353778213885079
2,2, 5, 4, 0,10,40.00,50.00,Thursday
148,28.985152586491549
596,0.46280456315076259
597,9.47128686563859
2,2, 5, 4, 0,10,50.00,60.00,Thursday
148,29.04627927042439
596,0.5029349449494804
597,10.287041291232427
2,2, 5, 4, 0,11, 0.00,10.00,Thursday
148,29.131516801044336
596,0.544706593798476
597,11.210088715924713
2,2, 5, 4, 0,11,10.00,20.00,Thursday
148,29.235275342745167
596,0.5881423127846285
597,12.250094943983541
2,2, 5, 4, 0,11,20.00,30.00,Thursday
148,29.319918730445907
596,0.6223366268574776
597,13.126418413087379
2,2, 5, 4, 0,11,30.00,40.00,Thursday
148,29.46524719254931
596,0.6784555667003455
597,14.674544796429828
2,2, 5, 4, 0,11,40.00,50.00,Thursday
148,29.592781634189014
596,0.7198032668499363
597,15.902377738961519
2,2, 5, 4, 0,11,50.00,60.00,Thursday
148,29.70753287003879
596,0.7717486334359872
597,17.5491560967113
2,2, 5, 4, 0,12, 0.00,10.00,Thursday
148,29.882118071631824
596,0.8400905657230373
597,19.890642578720717
2,2, 5, 4, 0,12,10.00,20.00,Thursday
148,30.03488362566475
596,0.8904466360236975
597,21.74088641710928
2,2, 5, 4, 0,12,20.00,30.00,Thursday
148,30.173221755449839
596,0.9471484433380448
597,23.948025731880507
2,2, 5, 4, 0,12,30.00,40.00,Thursday
148,30.372977479041368
596,1.0103230611660566
597,26.55632652478431
2,2, 5, 4, 0,12,40.00,50.00,Thursday
148,30.43240928834907
596,1.0376242842870063
597,27.730397511250204
2,2, 5, 4, 0,12,50.00,60.00,Thursday
148,30.472961572827658
596,1.0555080944749976
597,28.51431542080104
2,2, 5, 4, 0,13, 0.00,10.00,Thursday
148,30.626708223067014
596,1.115749359534755
597,31.238072895906784
2,2, 5, 4, 0,13,10.00,20.00,Thursday
148,30.82496193703099
596,1.193750870390589
597,34.94262067405869
2,2, 5, 4, 0,13,20.00,30.00,Thursday
148,30.947632463551927
596,1.2353852558180676
597,36.99435098335946
2,2, 5, 4, 0,13,30.00,40.00,Thursday
148,31.067611291452537
596,1.2774578258933343
597,39.114642495385847
2,2, 5, 4, 0,13,40.00,50.00,Thursday
148,31.1686747918629
596,1.3135803978159276
597,40.969038996911148
2,2, 5, 4, 0,13,50.00,60.00,Thursday
148,31.314981895024635
596,1.366708213854645
597,43.74603134263429
2,2, 5, 4, 0,14, 0.00,10.00,Thursday
148,31.405400509814116
596,1.410609630184829
597,46.07807613444033
2,2, 5, 4, 0,14,10.00,20.00,Thursday
148,31.475302600516977
596,1.4335727464413418
597,47.308833165412199
2,2, 5, 4, 0,14,20.00,30.00,Thursday
148,31.525278411373898
596,1.4504651278828873
597,48.21822117846401
2,2, 5, 4, 0,14,30.00,40.00,Thursday
148,31.57033469588165
596,1.4683964869123159
597,49.186729548268349
2,2, 5, 4, 0,14,40.00,50.00,Thursday
148,31.61461350714524
596,1.4794082172987962
597,49.782904870745699
2,2, 5, 4, 0,14,50.00,60.00,Thursday
148,31.76988917867478
596,1.5537269645725245
597,53.824559046522818
2,2, 5, 4, 0,15, 0.00,10.00,Thursday
148,31.95285514851824
596,1.6080686111403142
597,56.78428343227184
2,2, 5, 4, 0,15,10.00,20.00,Thursday
148,31.971511238634127
596,1.6166127784475693
597,57.248796682724769
2,2, 5, 4, 0,15,20.00,30.00,Thursday
148,31.999533124825136
596,1.6211579472550737
597,57.49574037451531
2,2, 5, 4, 0,15,30.00,40.00,Thursday
148,32.03063055296
596,1.625099515342359
597,57.70979072124385
2,2, 5, 4, 0,15,40.00,50.00,Thursday
148,32.063290654156748
596,1.6464884764734227
597,58.86946423559301
2,2, 5, 4, 0,15,50.00,60.00,Thursday
148,32.154146583298267
596,1.6816493263334514
597,60.766956569036228
2,2, 5, 4, 0,16, 0.00,10.00,Thursday
148,32.316078367593778
596,1.7399120021989097
597,63.87649945998555
2,2, 5, 4, 0,16,10.00,20.00,Thursday
148,32.47017867614488
596,1.7966220799358668
597,66.84550203407619
2,2, 5, 4, 0,16,20.00,30.00,Thursday
148,32.604817650696748
596,1.835022717680205
597,68.81455176508251
2,2, 5, 4, 0,16,30.00,40.00,Thursday
148,32.654398982592649
596,1.8559139778823087
597,69.86948754955185
2,2, 5, 4, 0,16,40.00,50.00,Thursday
148,32.66492530858017
596,1.847387532175249
597,69.44040088567047
2,2, 5, 4, 0,16,50.00,60.00,Thursday
148,32.64454285724722
596,1.836630568226316
597,68.89616958271009
2,2, 5, 4, 0,17, 0.00,10.00,Thursday
148,32.66323478175474
596,1.8632689248639667
597,70.23794199112627
2,2, 5, 4, 0,17,10.00,20.00,Thursday
148,32.734668091652178
596,1.8856291043208427
597,71.34818084425278
2,2, 5, 4, 0,17,20.00,30.00,Thursday
148,32.699053513139947
596,1.8717834550623789
597,70.66249736591486
2,2, 5, 4, 0,17,30.00,40.00,Thursday
148,32.74997652786617
596,1.8920965093965956
597,71.6664213418123
2,2, 5, 4, 0,17,40.00,50.00,Thursday
148,32.727258498617647
596,1.8814246572024014
597,71.14058781981523
2,2, 5, 4, 0,17,50.00,60.00,Thursday
148,32.71115607931427
596,1.8587047571903395
597,70.00947990240187
2,2, 5, 4, 0,18, 0.00,10.00,Thursday
148,32.666190996729628
596,1.8455773673588767
597,69.34904203905274
2,2, 5, 4, 0,18,10.00,20.00,Thursday
148,32.68136579144361
596,1.853178985511901
597,69.73207628652966
2,2, 5, 4, 0,18,20.00,30.00,Thursday
148,32.72694362046078
596,1.8734642267493003
597,70.74604797950724
2,2, 5, 4, 0,18,30.00,40.00,Thursday
148,32.80540410285586
596,1.8968308037125628
597,71.89853535760645
2,2, 5, 4, 0,18,40.00,50.00,Thursday
148,32.864056503627747
596,1.911229507809612
597,72.59998532227795
2,2, 5, 4, 0,18,50.00,60.00,Thursday
148,32.82537370197331
596,1.8902418934259138
597,71.5752971720469
2,2, 5, 4, 0,19, 0.00,10.00,Thursday
148,31.364516833318644
596,1.003475454242251
597,26.26621599775231
2,2, 5, 4, 0,19,10.00,20.00,Thursday
148,30.87625686810133
596,0.8586017777009749
597,20.558613924307083
2,2, 5, 4, 0,19,20.00,30.00,Thursday
148,30.68263783902787
596,0.8094262674158239
597,18.815654334489154
2,2, 5, 4, 0,19,30.00,40.00,Thursday
148,30.209642581779698
596,0.6770763078158073
597,14.634860388118227
2,2, 5, 4, 0,19,40.00,50.00,Thursday
148,30.064555504412924
596,0.6189018189218786
597,13.036099375225448
2,2, 5, 4, 0,19,50.00,60.00,Thursday
148,30.013111209786176
596,0.5722875674697299
597,11.860991785584688
2,2, 5, 4, 0,20, 0.00,10.00,Thursday
148,29.945758509667294
596,0.5325025158107687
597,10.932598894840723
2,2, 5, 4, 0,20,10.00,20.00,Thursday
148,29.846382259201979
596,0.48577117584179915
597,9.92963782540184
2,2, 5, 4, 0,20,20.00,30.00,Thursday
148,29.743649710527867
596,0.43887964226849227
597,9.017969181594566
2,2, 5, 4, 0,20,30.00,40.00,Thursday
148,29.65783688801284
596,0.39884184516882406
597,8.314337113810254
2,2, 5, 4, 0,20,40.00,50.00,Thursday
148,29.582784071824844
596,0.36224084618550547
597,7.731106757242642
2,2, 5, 4, 0,20,50.00,60.00,Thursday
148,29.52636779080192
596,0.3366510664802596
597,7.357245467056927
2,2, 5, 4, 0,21, 0.00,10.00,Thursday
148,29.474010501637936
596,0.30993637441655538
597,6.9966146635116079
2,2, 5, 4, 0,21,10.00,20.00,Thursday
148,29.424691901251703
596,0.2864044695292992
597,6.703976358799608
2,2, 5, 4, 0,21,20.00,30.00,Thursday
148,29.36664367752886
596,0.2565505203819575
597,6.36634700112441
2,2, 5, 4, 0,21,30.00,40.00,Thursday
148,29.323893573520068
596,0.23687961110818016
597,6.164380123535651
2,2, 5, 4, 0,21,40.00,50.00,Thursday
148,29.282381654846579
596,0.21441156632450676
597,5.953564121241271
2,2, 5, 4, 0,21,50.00,60.00,Thursday
148,29.217751807290555
596,0.18116897238583289
597,5.680419064011403
2,2, 5, 4, 0,22, 0.00,10.00,Thursday
148,29.139318815979324
596,0.14490536783397318
597,5.435065249070078
2,2, 5, 4, 0,22,10.00,20.00,Thursday
148,29.069792969087279
596,0.11737369619689567
597,5.285357317097237
2,2, 5, 4, 0,22,20.00,30.00,Thursday
148,28.971889243507304
596,0.07129604554521126
597,5.105247212698913
2,2, 5, 4, 0,22,30.00,40.00,Thursday
148,28.928270225547544
596,0.05787015443167042
597,5.069335449138009
2,2, 5, 4, 0,22,40.00,50.00,Thursday
148,28.897954401306554
596,0.03650578104872949
597,5.027588628263487