Program Version,EnergyPlus, Version 9.5.0-de239b2e5f, YMD=2021.12.09 19:13
1,5,Environment Title[],Latitude[deg],Longitude[deg],Time Zone[],Elevation[m]
2,8,Day of Simulation[],Month[],Day of Month[],DST Indicator[1=yes 0=no],Hour[],StartMinute[],EndMinute[],DayType
3,5,Cumulative Day of Simulation[],Month[],Day of Month[],DST Indicator[1=yes 0=no],DayType  ! When Daily Report Variables Requested
4,2,Cumulative Days of Simulation[],Month[]  ! When Monthly Report Variables Requested
5,1,Cumulative Days of Simulation[] ! When Run Period Report Variables Requested
6,1,Calendar Year of Simulation[] ! When Annual Report Variables Requested
148,1,THERMAL ZONE: JORGE,Zone Mean Air Temperature [C] !TimeStep
596,1,JORGE,Zone Thermal Comfort Fanger Model PMV [] !TimeStep
597,1,JORGE,Zone Thermal Comfort Fanger Model PPD [%] !TimeStep
End of Data Dictionary
1,RUN PERIOD 1,  18.85, -99.14,  -6.00,1280.00
2,1, 5, 3, 0, 1, 0.00,10.00,Wednesday
148,26.829348288850349
596,-0.670091993256957
597,14.435169804118118
2,1, 5, 3, 0, 1,10.00,20.00,Wednesday
148,26.66393011697363
596,-0.7256962365470105
597,16.083373895668715
2,1, 5, 3, 0, 1,20.00,30.00,Wednesday
148,26.573475041519264
596,-0.7592596882268138
597,17.142678186604074
2,1, 5, 3, 0, 1,30.00,40.00,Wednesday
148,26.53352249356452
596,-0.7834812849928825
597,17.93707677905364
2,1, 5, 3, 0, 1,40.00,50.00,Wednesday
148,26.507423461345316
596,-0.8019933484163191
597,18.56104002909177
2,1, 5, 3, 0, 1,50.00,60.00,Wednesday
148,26.4710369194125
596,-0.8239638640142948
597,19.32037244627209
2,1, 5, 3, 0, 2, 0.00,10.00,Wednesday
148,26.42753878950725
596,-0.8481978831419217
597,20.181437905795677
2,1, 5, 3, 0, 2,10.00,20.00,Wednesday
148,26.39966976753162
596,-0.8661308020252723
597,20.834365079665007
2,1, 5, 3, 0, 2,20.00,30.00,Wednesday
148,26.337400533649175
596,-0.8974228291250168
597,22.005436306847316
2,1, 5, 3, 0, 2,30.00,40.00,Wednesday
148,26.31720888012558
596,-0.9107791338772729
597,22.517449968817247
2,1, 5, 3, 0, 2,40.00,50.00,Wednesday
148,26.30128301058569
596,-0.9221919588969315
597,22.960671512313767
2,1, 5, 3, 0, 2,50.00,60.00,Wednesday
148,26.281097575622917
596,-0.9375096717409402
597,23.56374905263982
2,1, 5, 3, 0, 3, 0.00,10.00,Wednesday
148,26.25589435506182
596,-0.9552338139615603
597,24.273202582228096
2,1, 5, 3, 0, 3,10.00,20.00,Wednesday
148,26.24119063555676
596,-0.9651772462818236
597,24.67662564566706
2,1, 5, 3, 0, 3,20.00,30.00,Wednesday
148,26.218608271815716
596,-0.9780384613745308
597,25.20414280176493
2,1, 5, 3, 0, 3,30.00,40.00,Wednesday
148,26.181591874079215
596,-0.9995552013527232
597,26.1009251933868
2,1, 5, 3, 0, 3,40.00,50.00,Wednesday
148,26.15356922735728
596,-1.0143998432619713
597,26.729883917442338
2,1, 5, 3, 0, 3,50.00,60.00,Wednesday
148,26.12332390326718
596,-1.0347329727265454
597,27.60475374834668
2,1, 5, 3, 0, 4, 0.00,10.00,Wednesday
148,26.091575111375378
596,-1.0538456464389768
597,28.440955987437336
2,1, 5, 3, 0, 4,10.00,20.00,Wednesday
148,26.066175408272487
596,-1.068626660373989
597,29.096670965781088
2,1, 5, 3, 0, 4,20.00,30.00,Wednesday
148,26.04241430599305
596,-1.0864238035274403
597,29.896434747773087
2,1, 5, 3, 0, 4,30.00,40.00,Wednesday
148,25.976252235904278
596,-1.1197980568778059
597,31.42557664345287
2,1, 5, 3, 0, 4,40.00,50.00,Wednesday
148,25.894886305656436
596,-1.1620463273603646
597,33.41395657049165
2,1, 5, 3, 0, 4,50.00,60.00,Wednesday
148,25.840943735744788
596,-1.1877884320918715
597,34.65283951496767
2,1, 5, 3, 0, 5, 0.00,10.00,Wednesday
148,25.805239419255928
596,-1.2131611184555822
597,35.893110350838288
2,1, 5, 3, 0, 5,10.00,20.00,Wednesday
148,25.797551721646245
596,-1.222713102606099
597,36.364766185183189
2,1, 5, 3, 0, 5,20.00,30.00,Wednesday
148,25.792389209287259
596,-1.2282885620520892
597,36.641232771229528
2,1, 5, 3, 0, 5,30.00,40.00,Wednesday
148,25.777851158616718
596,-1.239289731608567
597,37.189205292602199
2,1, 5, 3, 0, 5,40.00,50.00,Wednesday
148,25.775495433743104
596,-1.242890376794783
597,37.369254339516569
2,1, 5, 3, 0, 5,50.00,60.00,Wednesday
148,25.732243783425426
596,-1.270879989354406
597,38.78022486477932
2,1, 5, 3, 0, 6, 0.00,10.00,Wednesday
148,25.688399170692756
596,-1.2930371460182409
597,39.91079000733703
2,1, 5, 3, 0, 6,10.00,20.00,Wednesday
148,25.59464536257586
596,-1.3429749591660836
597,42.4987633050683
2,1, 5, 3, 0, 6,20.00,30.00,Wednesday
148,25.530801419858539
596,-1.371766581975371
597,44.01316230048686
2,1, 5, 3, 0, 6,30.00,40.00,Wednesday
148,25.452311791483678
596,-1.4180444178119829
597,46.47581875717081
2,1, 5, 3, 0, 6,40.00,50.00,Wednesday
148,25.39040000889554
596,-1.4462175186817177
597,47.98926273703121
2,1, 5, 3, 0, 6,50.00,60.00,Wednesday
148,25.346018707911996
596,-1.4723116566327744
597,49.39858313012971
2,1, 5, 3, 0, 7, 0.00,10.00,Wednesday
148,25.332549633916626
596,-1.4825728841671975
597,49.954416778358517
2,1, 5, 3, 0, 7,10.00,20.00,Wednesday
148,25.353145053309278
596,-1.478332847072695
597,49.724641513896639
2,1, 5, 3, 0, 7,20.00,30.00,Wednesday
148,25.34830051602144
596,-1.4882866775899724
597,50.264265405658949
2,1, 5, 3, 0, 7,30.00,40.00,Wednesday
148,25.293388254038548
596,-1.5188924059039085
597,51.92732821424742
2,1, 5, 3, 0, 7,40.00,50.00,Wednesday
148,25.25815431532046
596,-1.5313803070206929
597,52.60712284184212
2,1, 5, 3, 0, 7,50.00,60.00,Wednesday
148,25.321215876604144
596,-1.4987020900705626
597,50.829635886960009
2,1, 5, 3, 0, 8, 0.00,10.00,Wednesday
148,25.39230629335763
596,-1.4745978137446688
597,49.522348373818157
2,1, 5, 3, 0, 8,10.00,20.00,Wednesday
148,25.384665964610045
596,-1.476799426557818
597,49.64157658930773
2,1, 5, 3, 0, 8,20.00,30.00,Wednesday
148,25.44318463509505
596,-1.4452435726651379
597,47.9367909804241
2,1, 5, 3, 0, 8,30.00,40.00,Wednesday
148,25.54584924525424
596,-1.4006982762740644
597,45.54902642489701
2,1, 5, 3, 0, 8,40.00,50.00,Wednesday
148,25.679329817235705
596,-1.3416487330972447
597,42.42937405226833
2,1, 5, 3, 0, 8,50.00,60.00,Wednesday
148,25.836487301869015
596,-1.2707941232916949
597,38.775866360412148
2,1, 5, 3, 0, 9, 0.00,10.00,Wednesday
148,25.956012137534406
596,-1.1983301500760389
597,35.16588460103607
2,1, 5, 3, 0, 9,10.00,20.00,Wednesday
148,26.093880216248797
596,-1.1466213266725354
597,32.68137703607199
2,1, 5, 3, 0, 9,20.00,30.00,Wednesday
148,26.2151346179455
596,-1.0997048675834802
597,30.500417581580707
2,1, 5, 3, 0, 9,30.00,40.00,Wednesday
148,26.306863238842479
596,-1.057831951150794
597,28.617027410324867
2,1, 5, 3, 0, 9,40.00,50.00,Wednesday
148,26.391560665589684
596,-1.0125833868979726
597,26.652476454378019
2,1, 5, 3, 0, 9,50.00,60.00,Wednesday
148,26.47379282569182
596,-0.9727117476350852
597,24.984883110583114
2,1, 5, 3, 0,10, 0.00,10.00,Wednesday
148,28.769759751230944
596,0.6411400149897367
597,13.629929003375793
2,1, 5, 3, 0,10,10.00,20.00,Wednesday
148,29.062310720577686
596,0.7578236926047689
597,17.096367904996528
2,1, 5, 3, 0,10,20.00,30.00,Wednesday
148,29.354886518892337
596,0.8324988201493822
597,19.620827757037107
2,1, 5, 3, 0,10,30.00,40.00,Wednesday
148,29.855005082747064
596,0.9750382775371039
597,25.080513324574328
2,1, 5, 3, 0,10,40.00,50.00,Wednesday
148,30.022481802289094
596,1.0504594622201547
597,28.29184044369113
2,1, 5, 3, 0,10,50.00,60.00,Wednesday
148,29.99386879035917
596,1.07663123122393
597,29.45500545320745
2,1, 5, 3, 0,11, 0.00,10.00,Wednesday
148,30.004842532414857
596,1.091304967308052
597,30.1177107292893
2,1, 5, 3, 0,11,10.00,20.00,Wednesday
148,30.107186588240887
596,1.1535823749905199
597,33.01105316093397
2,1, 5, 3, 0,11,20.00,30.00,Wednesday
148,30.213852277163747
596,1.2161883969432504
597,36.04231592492691
2,1, 5, 3, 0,11,30.00,40.00,Wednesday
148,30.288064573077095
596,1.2670071536176897
597,38.583821702526069
2,1, 5, 3, 0,11,40.00,50.00,Wednesday
148,30.340477750999847
596,1.311251659689203
597,40.848613378851108
2,1, 5, 3, 0,11,50.00,60.00,Wednesday
148,30.38320252474641
596,1.3354460096319363
597,42.105294984832827
2,1, 5, 3, 0,12, 0.00,10.00,Wednesday
148,30.482688882390545
596,1.3845951928449883
597,44.69255191752778
2,1, 5, 3, 0,12,10.00,20.00,Wednesday
148,30.514836851662403
596,1.4024497797222209
597,45.64241695837692
2,1, 5, 3, 0,12,20.00,30.00,Wednesday
148,30.629812438771738
596,1.4686717619918904
597,49.201620680473819
2,1, 5, 3, 0,12,30.00,40.00,Wednesday
148,30.677764474249316
596,1.4947035215725196
597,50.61250418552368
2,1, 5, 3, 0,12,40.00,50.00,Wednesday
148,30.765001550632566
596,1.5413184772363875
597,53.14844068651302
2,1, 5, 3, 0,12,50.00,60.00,Wednesday
148,30.847349120604784
596,1.5802972211684348
597,55.27243472702366
2,1, 5, 3, 0,13, 0.00,10.00,Wednesday
148,30.94174116387628
596,1.6277665705714347
597,57.854572052299797
2,1, 5, 3, 0,13,10.00,20.00,Wednesday
148,30.989036570260344
596,1.6530167700709473
597,59.222691020821297
2,1, 5, 3, 0,13,20.00,30.00,Wednesday
148,31.013245797870835
596,1.6839254105549864
597,60.88932442543039
2,1, 5, 3, 0,13,30.00,40.00,Wednesday
148,31.06808743107468
596,1.7141347004560155
597,62.50700914421547
2,1, 5, 3, 0,13,40.00,50.00,Wednesday
148,31.120154971574566
596,1.7410437786569999
597,63.93637020953802
2,1, 5, 3, 0,13,50.00,60.00,Wednesday
148,31.10336126270844
596,1.7414284620253607
597,63.95671467957623
2,1, 5, 3, 0,14, 0.00,10.00,Wednesday
148,31.030591688845495
596,1.7545507681451947
597,64.64908103169755
2,1, 5, 3, 0,14,10.00,20.00,Wednesday
148,31.087559835183673
596,1.8124777486888709
597,67.66298677503747
2,1, 5, 3, 0,14,20.00,30.00,Wednesday
148,31.193763977999017
596,1.8640910305785337
597,70.27902809117286
2,1, 5, 3, 0,14,30.00,40.00,Wednesday
148,31.259042982425997
596,1.9060291738286686
597,72.34743438131788
2,1, 5, 3, 0,14,40.00,50.00,Wednesday
148,31.340584338536809
596,1.9544155191655635
597,74.66114559006489
2,1, 5, 3, 0,14,50.00,60.00,Wednesday
148,31.481283982780526
596,2.024191395959384
597,77.84301048989383
2,1, 5, 3, 0,15, 0.00,10.00,Wednesday
148,31.385980367060136
596,1.9792389573855332
597,75.8150725096605
2,1, 5, 3, 0,15,10.00,20.00,Wednesday
148,31.40296940361387
596,2.017692043541851
597,77.55490569065376
2,1, 5, 3, 0,15,20.00,30.00,Wednesday
148,31.52621685821795
596,2.0928224166224549
597,80.77387133326742
2,1, 5, 3, 0,15,30.00,40.00,Wednesday
148,31.616054175104986
596,2.1336088312247205
597,82.41439053564329
2,1, 5, 3, 0,15,40.00,50.00,Wednesday
148,31.65774798059136
596,2.151428109191693
597,83.10635284675729
2,1, 5, 3, 0,15,50.00,60.00,Wednesday
148,31.724725954772049
596,2.1862283654835346
597,84.41316897713036
2,1, 5, 3, 0,16, 0.00,10.00,Wednesday
148,31.798466051709644
596,2.2258516086839479
597,85.82790872736946
2,1, 5, 3, 0,16,10.00,20.00,Wednesday
148,31.84289275595578
596,2.2402071417592186
597,86.32094719314934
2,1, 5, 3, 0,16,20.00,30.00,Wednesday
148,31.846938601846916
596,2.239868086343465
597,86.3094229741302
2,1, 5, 3, 0,16,30.00,40.00,Wednesday
148,31.84543991320815
596,2.2360738676674174
597,86.1800621756448
2,1, 5, 3, 0,16,40.00,50.00,Wednesday
148,31.83618571132543
596,2.2317015997453968
597,86.03008707529824
2,1, 5, 3, 0,16,50.00,60.00,Wednesday
148,31.70687184120677
596,2.1640636272773778
597,83.58770533460037
2,1, 5, 3, 0,17, 0.00,10.00,Wednesday
148,31.528114954830774
596,2.101078879551224
597,81.11223453644293
2,1, 5, 3, 0,17,10.00,20.00,Wednesday
148,31.381342609153994
596,2.0345992049494625
597,78.30067140218063
2,1, 5, 3, 0,17,20.00,30.00,Wednesday
148,31.263356692649724
596,1.979466540454406
597,75.82554270869807
2,1, 5, 3, 0,17,30.00,40.00,Wednesday
148,31.090739245634717
596,1.9201843199893203
597,73.03273678425247
2,1, 5, 3, 0,17,40.00,50.00,Wednesday
148,30.991998458546818
596,1.8821590266033513
597,71.17688674146622
2,1, 5, 3, 0,17,50.00,60.00,Wednesday
148,31.060292927177316
596,1.9108820974842234
597,72.5831417166465
2,1, 5, 3, 0,18, 0.00,10.00,Wednesday
148,31.0411392172328
596,1.8990854234404167
597,72.00882107048463
2,1, 5, 3, 0,18,10.00,20.00,Wednesday
148,30.988269267508067
596,1.8766866654424944
597,70.90599446617466
2,1, 5, 3, 0,18,20.00,30.00,Wednesday
148,30.954320231582764
596,1.8647745311368836
597,70.31317199629848
2,1, 5, 3, 0,18,30.00,40.00,Wednesday
148,30.960908019507117
596,1.86889985707091
597,70.51895632085804
2,1, 5, 3, 0,18,40.00,50.00,Wednesday
148,30.99923772630795
596,1.8848284447131774
597,71.30869113756758
2,1, 5, 3, 0,18,50.00,60.00,Wednesday
148,31.028782574234176
596,1.8943348516326813
597,71.77625305032606
2,1, 5, 3, 0,19, 0.00,10.00,Wednesday
148,29.527916308106133
596,0.6774265681439126
597,14.644930375323029
2,1, 5, 3, 0,19,10.00,20.00,Wednesday
148,29.113035865869198
596,0.5227883505009282
597,10.716333998800963
2,1, 5, 3, 0,19,20.00,30.00,Wednesday
148,28.838614805753929
596,0.4196447540952318
597,8.671353499804028
2,1, 5, 3, 0,19,30.00,40.00,Wednesday
148,28.298883550811536
596,0.2573624822892375
597,6.375033220052984
2,1, 5, 3, 0,19,40.00,50.00,Wednesday
148,28.007135286497065
596,0.15707413184361586
597,5.511286762675809
2,1, 5, 3, 0,19,50.00,60.00,Wednesday
148,27.926275409220329
596,0.10303792300759025
597,5.219877545057642
2,1, 5, 3, 0,20, 0.00,10.00,Wednesday
148,27.911401636166106
596,0.08138725578247917
597,5.137158391600678
2,1, 5, 3, 0,20,10.00,20.00,Wednesday
148,27.877791961083085
596,0.056433817129352709
597,5.06593586568701
2,1, 5, 3, 0,20,20.00,30.00,Wednesday
148,27.828530124657946
596,0.02903600725978908
597,5.017453039447162
2,1, 5, 3, 0,20,30.00,40.00,Wednesday
148,27.762625502324796
596,0.00024015706586662377
597,5.0000011939099668
2,1, 5, 3, 0,20,40.00,50.00,Wednesday
148,27.690834980435978
596,-0.035413315980443487
597,5.025962019772322
2,1, 5, 3, 0,20,50.00,60.00,Wednesday
148,27.617985639034253
596,-0.07643869056364522
597,5.1209820458397818
2,1, 5, 3, 0,21, 0.00,10.00,Wednesday
148,27.579064773370239
596,-0.1010420007976533
597,5.211437839666985
2,1, 5, 3, 0,21,10.00,20.00,Wednesday
148,27.545545071264887
596,-0.11637380176809575
597,5.280513268777042
2,1, 5, 3, 0,21,20.00,30.00,Wednesday
148,27.500268111462938
596,-0.14885043246847977
597,5.4591004142881449
2,1, 5, 3, 0,21,30.00,40.00,Wednesday
148,27.46091740397093
596,-0.17759978593607013
597,5.653837268880594
2,1, 5, 3, 0,21,40.00,50.00,Wednesday
148,27.439064199905319
596,-0.2020229875510933
597,5.846368619926864
2,1, 5, 3, 0,21,50.00,60.00,Wednesday
148,27.39427345053326
596,-0.2440838743876004
597,6.236461499160612
2,1, 5, 3, 0,22, 0.00,10.00,Wednesday
148,27.367820764728536
596,-0.27187403785277899
597,6.534955139245909
2,1, 5, 3, 0,22,10.00,20.00,Wednesday
148,27.340606979207516
596,-0.30683455283752467
597,6.956701267366796
2,1, 5, 3, 0,22,20.00,30.00,Wednesday
148,27.280583852941669
596,-0.3435860371930221
597,7.455813633098202
2,1, 5, 3, 0,22,30.00,40.00,Wednesday
148,27.21359810793618
596,-0.3721191367440802
597,7.882883409593589
2,1, 5, 3, 0,22,40.00,50.00,Wednesday
148,27.176382813259627
596,-0.3946685579096657
597,8.244946587011413
2,1, 5, 3, 0,22,50.00,60.00,Wednesday
148,27.14664375379588
596,-0.42322224001806299
597,8.73461848025704
2,1, 5, 3, 0,23, 0.00,10.00,Wednesday
148,27.136465676250766
596,-0.43457373314042199
597,8.938996174197144
2,1, 5, 3, 0,23,10.00,20.00,Wednesday
148,27.143554031529928
596,-0.42987649388002266
597,8.853754033864945
2,1, 5, 3, 0,23,20.00,30.00,Wednesday
148,27.143159925934517
596,-0.4452230031123236
597,9.135761644110105
2,1, 5, 3, 0,23,30.00,40.00,Wednesday
148,27.10591544917984
596,-0.4707765569633301
597,9.627809404218766
2,1, 5, 3, 0,23,40.00,50.00,Wednesday
148,27.05918445877546
596,-0.4883056037990984
597,9.981611992684293
2,1, 5, 3, 0,23,50.00,60.00,Wednesday
148,27.063068492583154
596,-0.48861605879349448
597,9.987997635934122
2,1, 5, 3, 0,24, 0.00,10.00,Wednesday
148,27.073360622551449
596,-0.49124167752745359
597,10.042169507730592
2,1, 5, 3, 0,24,10.00,20.00,Wednesday
148,27.067314937989467
596,-0.5023533859509995
597,10.274723108260702
2,1, 5, 3, 0,24,20.00,30.00,Wednesday
148,27.050718849928086
596,-0.5158978507419849
597,10.565408057908059
2,1, 5, 3, 0,24,30.00,40.00,Wednesday
148,27.038903521811304
596,-0.5268279962800677
597,10.80577176853339
2,1, 5, 3, 0,24,40.00,50.00,Wednesday
148,27.028075947742875
596,-0.539606069366432
597,11.093330878677805
2,1, 5, 3, 0,24,50.00,60.00,Wednesday
148,27.023956952609127
596,-0.5501179955669832
597,11.33519551706344
2,2, 5, 4, 0, 1, 0.00,10.00,Thursday
148,27.010415274672569
596,-0.5642206428340344
597,11.66720145650045
2,2, 5, 4, 0, 1,10.00,20.00,Thursday
148,26.96254886445132
596,-0.5926755362431297
597,12.363353477647152
2,2, 5, 4, 0, 1,20.00,30.00,Thursday
148,26.909134248051698
596,-0.6173962452099756
597,12.99667136967436
2,2, 5, 4, 0, 1,30.00,40.00,Thursday
148,26.851842148280434
596,-0.6482867232055797
597,13.825323112024777
2,2, 5, 4, 0, 1,40.00,50.00,Thursday
148,26.81774968951914
596,-0.665485143344842
597,14.304609885946974
2,2, 5, 4, 0, 1,50.00,60.00,Thursday
148,26.802290086899025
596,-0.6779567615342375
597,14.660183538716709
2,2, 5, 4, 0, 2, 0.00,10.00,Thursday
148,26.790217335563577
596,-0.6893645738894949
597,14.991320772316613
2,2, 5, 4, 0, 2,10.00,20.00,Thursday
148,26.77254610992369
596,-0.702541634137999
597,15.380814612941976
2,2, 5, 4, 0, 2,20.00,30.00,Thursday
148,26.75775230065214
596,-0.7120149906152226
597,15.665463420735336
2,2, 5, 4, 0, 2,30.00,40.00,Thursday
148,26.7398883935289
596,-0.725267481456555
597,16.070154741236324
2,2, 5, 4, 0, 2,40.00,50.00,Thursday
148,26.721378867037847
596,-0.7373429232124323
597,16.445481673844684
2,2, 5, 4, 0, 2,50.00,60.00,Thursday
148,26.699391697201379
596,-0.7524680921157475
597,16.92442990180099
2,2, 5, 4, 0, 3, 0.00,10.00,Thursday
148,26.66738820738194
596,-0.7725349791527889
597,17.574972021220235
2,2, 5, 4, 0, 3,10.00,20.00,Thursday
148,26.613738011446214
596,-0.8021795499232782
597,18.56738984264848
2,2, 5, 4, 0, 3,20.00,30.00,Thursday
148,26.579109625197686
596,-0.8226907908650815
597,19.2758185261591
2,2, 5, 4, 0, 3,30.00,40.00,Thursday
148,26.520456888177649
596,-0.8508611017966482
597,20.277560256597825
2,2, 5, 4, 0, 3,40.00,50.00,Thursday
148,26.46074330534766
596,-0.8767907502513321
597,21.22878929610755
2,2, 5, 4, 0, 3,50.00,60.00,Thursday
148,26.427450176179009
596,-0.8994125692627238
597,22.081254104657718
2,2, 5, 4, 0, 4, 0.00,10.00,Thursday
148,26.361201033646119
596,-0.9331219377552431
597,23.390041422351545
2,2, 5, 4, 0, 4,10.00,20.00,Thursday
148,26.27702958843056
596,-0.9709216029922726
597,24.91144345861366
2,2, 5, 4, 0, 4,20.00,30.00,Thursday
148,26.24170117733702
596,-0.9922200894380852
597,25.79322037542019
2,2, 5, 4, 0, 4,30.00,40.00,Thursday
148,26.185422466329645
596,-1.019737306434914
597,26.958051560944214
2,2, 5, 4, 0, 4,40.00,50.00,Thursday
148,26.129514286344234
596,-1.0435840301970072
597,27.990346573883273
2,2, 5, 4, 0, 4,50.00,60.00,Thursday
148,26.127185142899209
596,-1.0481123766285597
597,28.18872605108622
2,2, 5, 4, 0, 5, 0.00,10.00,Thursday
148,26.071608505266217
596,-1.0801416730610998
597,29.612864559193569
2,2, 5, 4, 0, 5,10.00,20.00,Thursday
148,26.00848543127202
596,-1.1105707478850567
597,30.99903664447828
2,2, 5, 4, 0, 5,20.00,30.00,Thursday
148,25.98055467788611
596,-1.1224289555985208
597,31.547710304427853
2,2, 5, 4, 0, 5,30.00,40.00,Thursday
148,25.975670593713656
596,-1.1311354477046074
597,31.953513270141728
2,2, 5, 4, 0, 5,40.00,50.00,Thursday
148,25.94960350742362
596,-1.1513887809078103
597,32.906999123829567
2,2, 5, 4, 0, 5,50.00,60.00,Thursday
148,25.900752638347137
596,-1.1764552114457275
597,34.104939085199678
2,2, 5, 4, 0, 6, 0.00,10.00,Thursday
148,25.8694084092876
596,-1.1891352035643273
597,34.71820267553454
2,2, 5, 4, 0, 6,10.00,20.00,Thursday
148,25.80417812430964
596,-1.2295126940725126
597,36.702046340215257
2,2, 5, 4, 0, 6,20.00,30.00,Thursday
148,25.772670629703194
596,-1.246819448280884
597,37.56611403380749
2,2, 5, 4, 0, 6,30.00,40.00,Thursday
148,25.69779425592134
596,-1.2875958688058285
597,39.63208170829127
2,2, 5, 4, 0, 6,40.00,50.00,Thursday
148,25.619485095854768
596,-1.321365042603669
597,41.37244063875614
2,2, 5, 4, 0, 6,50.00,60.00,Thursday
148,25.599122477772654
596,-1.3284994959760098
597,41.743256481905479
2,2, 5, 4, 0, 7, 0.00,10.00,Thursday
148,25.630176008950369
596,-1.3203550965594602
597,41.32003319642621
2,2, 5, 4, 0, 7,10.00,20.00,Thursday
148,25.66357492615805
596,-1.3117468592787856
597,40.87421180187259
2,2, 5, 4, 0, 7,20.00,30.00,Thursday
148,25.64688084339995
596,-1.3234411693855415
597,41.48024013142348
2,2, 5, 4, 0, 7,30.00,40.00,Thursday
148,25.64720902757477
596,-1.3265832734935104
597,41.64355770658694
2,2, 5, 4, 0, 7,40.00,50.00,Thursday
148,25.663613441702844
596,-1.3179420519612824
597,41.19490341629589
2,2, 5, 4, 0, 7,50.00,60.00,Thursday
148,25.690825771083394
596,-1.3072535489397715
597,40.64213265756144
2,2, 5, 4, 0, 8, 0.00,10.00,Thursday
148,25.71815881845484
596,-1.2978850531444917
597,40.15967525804902
2,2, 5, 4, 0, 8,10.00,20.00,Thursday
148,25.753093691550164
596,-1.28317744436654
597,39.40627042703212
2,2, 5, 4, 0, 8,20.00,30.00,Thursday
148,25.77967976832617
596,-1.2694922510277072
597,38.709806237997138
2,2, 5, 4, 0, 8,30.00,40.00,Thursday
148,25.830508155717359
596,-1.239606892048961
597,37.20505106246214
2,2, 5, 4, 0, 8,40.00,50.00,Thursday
148,25.94677834982832
596,-1.1869934325114889
597,34.61428077793285
2,2, 5, 4, 0, 8,50.00,60.00,Thursday
148,26.077692849219689
596,-1.131801284956843
597,31.984649455993464
2,2, 5, 4, 0, 9, 0.00,10.00,Thursday
148,26.131738885395607
596,-1.1011290014372315
597,30.56554129561205
2,2, 5, 4, 0, 9,10.00,20.00,Thursday
148,26.19714016628403
596,-1.0805985624677115
597,29.633441842915575
2,2, 5, 4, 0, 9,20.00,30.00,Thursday
148,26.311180978516899
596,-1.020093295199899
597,26.97330730166037
2,2, 5, 4, 0, 9,30.00,40.00,Thursday
148,26.44388877014514
596,-0.9625853417813772
597,24.571094732303963
2,2, 5, 4, 0, 9,40.00,50.00,Thursday
148,26.565656478318343
596,-0.9044183169125057
597,22.272706234084397
2,2, 5, 4, 0, 9,50.00,60.00,Thursday
148,26.633460396194633
596,-0.885207594561622
597,21.543518688916224
2,2, 5, 4, 0,10, 0.00,10.00,Thursday
148,28.82662769990958
596,0.6644251089461947
597,14.274698170674384
2,2, 5, 4, 0,10,10.00,20.00,Thursday
148,29.03137994806451
596,0.7547524080344962
597,16.997616247039106
2,2, 5, 4, 0,10,20.00,30.00,Thursday
148,29.32507963432262
596,0.8344152494364664
597,19.688711283504504
2,2, 5, 4, 0,10,30.00,40.00,Thursday
148,29.772222518139448
596,0.9589110342355628
597,24.42194303122136
2,2, 5, 4, 0,10,40.00,50.00,Thursday
148,29.92917462895186
596,1.0342496074316275
597,27.583778727155406
2,2, 5, 4, 0,10,50.00,60.00,Thursday
148,29.96081984090284
596,1.0826391486135212
597,29.72543415625762
2,2, 5, 4, 0,11, 0.00,10.00,Thursday
148,30.016553455968123
596,1.1305962435283566
597,31.928309337000728
2,2, 5, 4, 0,11,10.00,20.00,Thursday
148,30.101922877371515
596,1.182826875214575
597,34.41250280017857
2,2, 5, 4, 0,11,20.00,30.00,Thursday
148,30.166248225736817
596,1.2140505924898977
597,35.936923271437809
2,2, 5, 4, 0,11,30.00,40.00,Thursday
148,30.280663199229399
596,1.2688009066617377
597,38.67474261653757
2,2, 5, 4, 0,11,40.00,50.00,Thursday
148,30.377931309052916
596,1.3139374987779829
597,40.98751596314706
2,2, 5, 4, 0,11,50.00,60.00,Thursday
148,30.45673066605457
596,1.3599609146375747
597,43.390399186526369
2,2, 5, 4, 0,12, 0.00,10.00,Thursday
148,30.600553939876087
596,1.4249757069671747
597,46.847276480929057
2,2, 5, 4, 0,12,10.00,20.00,Thursday
148,30.69806732729321
596,1.466241165454667
597,49.07015922334458
2,2, 5, 4, 0,12,20.00,30.00,Thursday
148,30.792685294458388
596,1.5139909126513425
597,51.660668794019908
2,2, 5, 4, 0,12,30.00,40.00,Thursday
148,30.923796183727057
596,1.5736361214149364
597,54.90951144231071
2,2, 5, 4, 0,12,40.00,50.00,Thursday
148,30.9434188378007
596,1.5923441836215738
597,55.928565235948038
2,2, 5, 4, 0,12,50.00,60.00,Thursday
148,30.944790896860263
596,1.5991875344206148
597,56.30109483459831
2,2, 5, 4, 0,13, 0.00,10.00,Thursday
148,31.04732814593278
596,1.6527291123757138
597,59.20713468575743
2,2, 5, 4, 0,13,10.00,20.00,Thursday
148,31.17494544511297
596,1.7148351548813337
597,62.5443639368819
2,2, 5, 4, 0,13,20.00,30.00,Thursday
148,31.232663609548223
596,1.7411356720487317
597,63.94123034917703
2,2, 5, 4, 0,13,30.00,40.00,Thursday
148,31.291233942018395
596,1.769851151366493
597,65.45218040039484
2,2, 5, 4, 0,13,40.00,50.00,Thursday
148,31.33409854507049
596,1.7939837190559987
597,66.70889616597485
2,2, 5, 4, 0,13,50.00,60.00,Thursday
148,31.414804996930365
596,1.8343636614352408
597,68.78107662459465
2,2, 5, 4, 0,14, 0.00,10.00,Thursday
148,31.422542081006524
596,1.866963833555818
597,70.42244435867615
2,2, 5, 4, 0,14,10.00,20.00,Thursday
148,31.42936735418527
596,1.8789751276967382
597,71.01939001230349
2,2, 5, 4, 0,14,20.00,30.00,Thursday
148,31.433324739587009
596,1.8877980813102456
597,71.45505677633712
2,2, 5, 4, 0,14,30.00,40.00,Thursday
148,31.430595428563835
596,1.8958221981642037
597,71.84914568886348
2,2, 5, 4, 0,14,40.00,50.00,Thursday
148,31.41997881047278
596,1.8993380592213365
597,72.02116857389932
2,2, 5, 4, 0,14,50.00,60.00,Thursday
148,31.528400839913908
596,1.9624518007475447
597,75.03726799328304
2,2, 5, 4, 0,15, 0.00,10.00,Thursday
148,31.632258825824825
596,2.009061612449676
597,77.16962531268034
2,2, 5, 4, 0,15,10.00,20.00,Thursday
148,31.626650435262044
596,2.0116385185670677
597,77.28498518707704
2,2, 5, 4, 0,15,20.00,30.00,Thursday
148,31.617023425227786
596,2.013487340296077
597,77.36758282469852
2,2, 5, 4, 0,15,30.00,40.00,Thursday
148,31.588656919217905
596,2.0208289610908136
597,77.69417985332945
2,2, 5, 4, 0,15,40.00,50.00,Thursday
148,31.579502032659929
596,2.043366024046705
597,78.68259426682701
2,2, 5, 4, 0,15,50.00,60.00,Thursday
148,31.63763197346243
596,2.088949665986431
597,80.61407986383226
2,2, 5, 4, 0,16, 0.00,10.00,Thursday
148,31.742768803845068
596,2.1377701305787975
597,82.57734903103837
2,2, 5, 4, 0,16,10.00,20.00,Thursday
148,31.836131857582914
596,2.1842427527244649
597,84.3402095881483
2,2, 5, 4, 0,16,20.00,30.00,Thursday
148,31.917175080711883
596,2.2237796624106678
597,85.75588605432006
2,2, 5, 4, 0,16,30.00,40.00,Thursday
148,31.93713266038668
596,2.2399589694097434
597,86.31251258914206
2,2, 5, 4, 0,16,40.00,50.00,Thursday
148,31.910139185981426
596,2.2311827855752135
597,86.01222666307358
2,2, 5, 4, 0,16,50.00,60.00,Thursday
148,31.88519094685474
596,2.2262001615361419
597,85.84000340073556
2,2, 5, 4, 0,17, 0.00,10.00,Thursday
148,31.866938254559736
596,2.243671083337158
597,86.43834885752898
2,2, 5, 4, 0,17,10.00,20.00,Thursday
148,31.860727453769849
596,2.251904184464249
597,86.71493809391532
2,2, 5, 4, 0,17,20.00,30.00,Thursday
148,31.818610988393073
596,2.2284570857109768
597,85.91816919512964
2,2, 5, 4, 0,17,30.00,40.00,Thursday
148,31.82603558645112
596,2.240781159311803
597,86.34044426425304
2,2, 5, 4, 0,17,40.00,50.00,Thursday
148,31.80309438955767
596,2.2217116727451629
597,85.68378459154238
2,2, 5, 4, 0,17,50.00,60.00,Thursday
148,31.770567911206518
596,2.2047851602846189
597,85.08553344512126
2,2, 5, 4, 0,18, 0.00,10.00,Thursday
148,31.70999276591653
596,2.17763457658376
597,84.09599267276154
2,2, 5, 4, 0,18,10.00,20.00,Thursday
148,31.710509666814553
596,2.1806655607077305
597,84.20827622241559
2,2, 5, 4, 0,18,20.00,30.00,Thursday
148,31.73271673266342
596,2.194417011903712
597,84.71198331766169
2,2, 5, 4, 0,18,30.00,40.00,Thursday
148,31.782252892345583
596,2.2162594227860885
597,85.49265455591189
2,2, 5, 4, 0,18,40.00,50.00,Thursday
148,31.813421627052074
596,2.226439955396071
597,85.84832060347653
2,2, 5, 4, 0,18,50.00,60.00,Thursday
148,31.767623191473488
596,2.19953871001771
597,84.89718260030523
2,2, 5, 4, 0,19, 0.00,10.00,Thursday
148,30.21704801144467
596,1.0403436895499863
597,27.84885028164139
2,2, 5, 4, 0,19,10.00,20.00,Thursday
148,29.768610652147176
596,0.8745790846494368
597,21.146571594250959
2,2, 5, 4, 0,19,20.00,30.00,Thursday
148,29.538576771947509
596,0.8083330640044109
597,18.778060353959263
2,2, 5, 4, 0,19,30.00,40.00,Thursday
148,29.029944774910005
596,0.6451811497338104
597,13.740143290061824
2,2, 5, 4, 0,19,40.00,50.00,Thursday
148,28.845184121543306
596,0.5720597400628439
597,11.85547999082759
2,2, 5, 4, 0,19,50.00,60.00,Thursday
148,28.765087139333809
596,0.5189182508384079
597,10.631312435440805
2,2, 5, 4, 0,20, 0.00,10.00,Thursday
148,28.687619564716408
596,0.4781077185683488
597,9.774167593026093
2,2, 5, 4, 0,20,10.00,20.00,Thursday
148,28.59817148876485
596,0.4331349696200239
597,8.912785872588799
2,2, 5, 4, 0,20,20.00,30.00,Thursday
148,28.50905244393424
596,0.3883565338743229
597,8.141409400999308
2,2, 5, 4, 0,20,30.00,40.00,Thursday
148,28.43226220210017
596,0.3498579795034413
597,7.5467181171422059
2,2, 5, 4, 0,20,40.00,50.00,Thursday
148,28.365565919293976
596,0.31465712041880086
597,7.058141521918245
2,2, 5, 4, 0,20,50.00,60.00,Thursday
148,28.31482159477818
596,0.2889167352314016
597,6.734102798822704
2,2, 5, 4, 0,21, 0.00,10.00,Thursday
148,28.27237546009745
596,0.2635137430252503
597,6.441739450370264
2,2, 5, 4, 0,21,10.00,20.00,Thursday
148,28.236951535507573
596,0.24297238923666449
597,6.225198467454575
2,2, 5, 4, 0,21,20.00,30.00,Thursday
148,28.196439112385673
596,0.21688807140836759
597,5.9757633788997
2,2, 5, 4, 0,21,30.00,40.00,Thursday
148,28.16651072644029
596,0.20154378702281859
597,5.842351225321622
2,2, 5, 4, 0,21,40.00,50.00,Thursday
148,28.144775232384477
596,0.1840871577181074
597,5.702547663890314
2,2, 5, 4, 0,21,50.00,60.00,Thursday
148,28.110083767458446
596,0.15786798725856805
597,5.5164735583787209
2,2, 5, 4, 0,22, 0.00,10.00,Thursday
148,28.07800000126729
596,0.13716427336711027
597,5.3897856626418989
2,2, 5, 4, 0,22,10.00,20.00,Thursday
148,28.040001455821373
596,0.119922061962904
597,5.297890894160119
2,2, 5, 4, 0,22,20.00,30.00,Thursday
148,27.973533182557305
596,0.08116501712920303
597,5.136410136420892
2,2, 5, 4, 0,22,30.00,40.00,Thursday
148,27.940457720935119
596,0.07217873056367512
597,5.107869993834427
2,2, 5, 4, 0,22,40.00,50.00,Thursday
148,27.930488710581046
596,0.05697398287282067