Program Version,EnergyPlus, Version 9.2.0-921312fa1d, YMD=2021.12.08 10:07
1,5,Environment Title[],Latitude[deg],Longitude[deg],Time Zone[],Elevation[m]
2,8,Day of Simulation[],Month[],Day of Month[],DST Indicator[1=yes 0=no],Hour[],StartMinute[],EndMinute[],DayType
3,5,Cumulative Day of Simulation[],Month[],Day of Month[],DST Indicator[1=yes 0=no],DayType  ! When Daily Report Variables Requested
4,2,Cumulative Days of Simulation[],Month[]  ! When Monthly Report Variables Requested
5,1,Cumulative Days of Simulation[] ! When Run Period Report Variables Requested
6,1,Calendar Year of Simulation[] ! When Annual Report Variables Requested
7,9,Environment,Site Outdoor Air Drybulb Temperature [C] !Monthly [Value,Min,Day,Hour,Minute,Max,Day,Hour,Minute]
8,1,Environment,Site Outdoor Air Wetbulb Temperature [C] !TimeStep
95,1,THERMAL ZONE: C1,Zone Air Temperature [C] !Hourly
96,7,THERMAL ZONE: C1,Zone Air Relative Humidity [%] !Daily [Value,Min,Hour,Minute,Max,Hour,Minute]
135,1,THERMAL ZONE: C2,Zone Air Temperature [C] !Hourly
136,7,THERMAL ZONE: C2,Zone Air Relative Humidity [%] !Daily [Value,Min,Hour,Minute,Max,Hour,Minute]
175,1,THERMAL ZONE: C2 1,Zone Air Temperature [C] !Hourly
176,7,THERMAL ZONE: C2 1,Zone Air Relative Humidity [%] !Daily [Value,Min,Hour,Minute,Max,Hour,Minute]
215,1,THERMAL ZONE: JORGE,Zone Air Temperature [C] !Hourly
216,7,THERMAL ZONE: JORGE,Zone Air Relative Humidity [%] !Daily [Value,Min,Hour,Minute,Max,Hour,Minute]
255,1,THERMAL ZONE: TECHADA_C1,Zone Air Temperature [C] !Hourly
256,7,THERMAL ZONE: TECHADA_C1,Zone Air Relative Humidity [%] !Daily [Value,Min,Hour,Minute,Max,Hour,Minute]
295,1,THERMAL ZONE: TECHADA_JORGE,Zone Air Temperature [C] !Hourly
296,7,THERMAL ZONE: TECHADA_JORGE,Zone Air Relative Humidity [%] !Daily [Value,Min,Hour,Minute,Max,Hour,Minute]
End of Data Dictionary
1,RUN PERIOD 1,  18.85, -99.14,  -6.00,1280.00
2,1, 5, 3, 0, 1, 0.00,10.00,Wednesday
8,15.551453857809504
2,1, 5, 3, 0, 1,10.00,20.00,Wednesday
8,15.551341657334709
2,1, 5, 3, 0, 1,20.00,30.00,Wednesday
8,15.551141131488416
2,1, 5, 3, 0, 1,30.00,40.00,Wednesday
8,15.388477976376653
2,1, 5, 3, 0, 1,40.00,50.00,Wednesday
8,15.306586238077543
2,1, 5, 3, 0, 1,50.00,60.00,Wednesday
8,15.388878812057376
2,1, 5, 3, 0, 1, 0.00,60.00,Wednesday
95,22.536588213730238
135,27.635383136965478
175,22.818027166221908
215,22.882393172719266
255,27.577164782522489
295,27.85492953601661
2,1, 5, 3, 0, 2, 0.00,10.00,Wednesday
8,15.143756146820773
2,1, 5, 3, 0, 2,10.00,20.00,Wednesday
8,15.224833002983646
2,1, 5, 3, 0, 2,20.00,30.00,Wednesday
8,15.143032792332589
2,1, 5, 3, 0, 2,30.00,40.00,Wednesday
8,15.062181974924576
2,1, 5, 3, 0, 2,40.00,50.00,Wednesday
8,15.142921891712506
2,1, 5, 3, 0, 2,50.00,60.00,Wednesday
8,15.141611257151391
2,1, 5, 3, 0, 2, 0.00,60.00,Wednesday
95,22.22939892822089
135,27.303908706968249
175,22.50507432375501
215,22.569885650469517
255,27.23875186412225
295,27.513761468314397
2,1, 5, 3, 0, 3, 0.00,10.00,Wednesday
8,15.137520067395638
2,1, 5, 3, 0, 3,10.00,20.00,Wednesday
8,14.895974322461563
2,1, 5, 3, 0, 3,20.00,30.00,Wednesday
8,14.895835228343048
2,1, 5, 3, 0, 3,30.00,40.00,Wednesday
8,14.814025125481735
2,1, 5, 3, 0, 3,40.00,50.00,Wednesday
8,14.973131683911776
2,1, 5, 3, 0, 3,50.00,60.00,Wednesday
8,14.80835904908717
2,1, 5, 3, 0, 3, 0.00,60.00,Wednesday
95,21.967218958815413
135,26.98346766434584
175,22.241982217924574
215,22.309986895589618
255,26.917047061850029
295,27.180609072522818
2,1, 5, 3, 0, 4, 0.00,10.00,Wednesday
8,14.808464530288152
2,1, 5, 3, 0, 4,10.00,20.00,Wednesday
8,14.890851798553883
2,1, 5, 3, 0, 4,20.00,30.00,Wednesday
8,14.644033286387196
2,1, 5, 3, 0, 4,30.00,40.00,Wednesday
8,14.561791567834636
2,1, 5, 3, 0, 4,40.00,50.00,Wednesday
8,14.159172251289882
2,1, 5, 3, 0, 4,50.00,60.00,Wednesday
8,14.24176773048506
2,1, 5, 3, 0, 4, 0.00,60.00,Wednesday
95,21.729483172959278
135,26.652809626001198
175,22.002281035104983
215,22.072609049436836
255,26.585641174460304
295,26.839585421568957
2,1, 5, 3, 0, 5, 0.00,10.00,Wednesday
8,14.23319742690719
2,1, 5, 3, 0, 5,10.00,20.00,Wednesday
8,14.221041848974523
2,1, 5, 3, 0, 5,20.00,30.00,Wednesday
8,14.303499826812514
2,1, 5, 3, 0, 5,30.00,40.00,Wednesday
8,14.220722272063318
2,1, 5, 3, 0, 5,40.00,50.00,Wednesday
8,14.468544648108623
2,1, 5, 3, 0, 5,50.00,60.00,Wednesday
8,14.22120468839489
2,1, 5, 3, 0, 5, 0.00,60.00,Wednesday
95,21.496964835263385
135,26.313359594441768
175,21.766112769605269
215,21.8378172106168
255,26.245923344220587
295,26.490532374514407
2,1, 5, 3, 0, 6, 0.00,10.00,Wednesday
8,14.52457109151908
2,1, 5, 3, 0, 6,10.00,20.00,Wednesday
8,13.93996501632181
2,1, 5, 3, 0, 6,20.00,30.00,Wednesday
8,14.233214293896257
2,1, 5, 3, 0, 6,30.00,40.00,Wednesday
8,13.869348571340229
2,1, 5, 3, 0, 6,40.00,50.00,Wednesday
8,13.954510406180012
2,1, 5, 3, 0, 6,50.00,60.00,Wednesday
8,13.86976310782085
2,1, 5, 3, 0, 6, 0.00,60.00,Wednesday
95,21.255446945381669
135,25.94270073100326
175,21.518569781842929
215,21.591382161857184
255,25.875583702217754
295,26.110792911915956
2,1, 5, 3, 0, 7, 0.00,10.00,Wednesday
8,13.955390217184088
2,1, 5, 3, 0, 7,10.00,20.00,Wednesday
8,14.065362046439093
2,1, 5, 3, 0, 7,20.00,30.00,Wednesday
8,14.097405389686218
2,1, 5, 3, 0, 7,30.00,40.00,Wednesday
8,13.785365950146265
2,1, 5, 3, 0, 7,40.00,50.00,Wednesday
8,14.01278115470141
2,1, 5, 3, 0, 7,50.00,60.00,Wednesday
8,13.836161250573142
2,1, 5, 3, 0, 7, 0.00,60.00,Wednesday
95,21.02900464693946
135,25.588705414077557
175,21.290039855175754
215,21.358192893299735
255,25.5179144090477
295,25.74218103662112
2,1, 5, 3, 0, 8, 0.00,10.00,Wednesday
8,14.380147198337724
2,1, 5, 3, 0, 8,10.00,20.00,Wednesday
8,14.088219316544447
2,1, 5, 3, 0, 8,20.00,30.00,Wednesday
8,14.442644748223918
2,1, 5, 3, 0, 8,30.00,40.00,Wednesday
8,14.553554990943724
2,1, 5, 3, 0, 8,40.00,50.00,Wednesday
8,14.897405055141685
2,1, 5, 3, 0, 8,50.00,60.00,Wednesday
8,14.96768036440707
2,1, 5, 3, 0, 8, 0.00,60.00,Wednesday
95,21.203396091376609
135,25.392765411364178
175,21.547851846979186
215,21.53164030404797
255,25.31934534669593
295,25.508762306733343
2,1, 5, 3, 0, 9, 0.00,10.00,Wednesday
8,16.084534284863986
2,1, 5, 3, 0, 9,10.00,20.00,Wednesday
8,15.908940852667075
2,1, 5, 3, 0, 9,20.00,30.00,Wednesday
8,15.987729433634302
2,1, 5, 3, 0, 9,30.00,40.00,Wednesday
8,16.04598534602531
2,1, 5, 3, 0, 9,40.00,50.00,Wednesday
8,16.360640757929774
2,1, 5, 3, 0, 9,50.00,60.00,Wednesday
8,16.227055965306076
2,1, 5, 3, 0, 9, 0.00,60.00,Wednesday
95,21.985073986154068
135,25.4239434040224
175,22.36301173838531
215,22.303717058371963
255,25.34565743379687
295,25.54456488212701
2,1, 5, 3, 0,10, 0.00,10.00,Wednesday
8,16.425597228528735
2,1, 5, 3, 0,10,10.00,20.00,Wednesday
8,16.657649938044018
2,1, 5, 3, 0,10,20.00,30.00,Wednesday
8,16.734822756327124
2,1, 5, 3, 0,10,30.00,40.00,Wednesday
8,16.812284457403036
2,1, 5, 3, 0,10,40.00,50.00,Wednesday
8,17.005343351215278
2,1, 5, 3, 0,10,50.00,60.00,Wednesday
8,16.42598673345294
2,1, 5, 3, 0,10, 0.00,60.00,Wednesday
95,22.875784448668754
135,25.642035094901116
175,23.23149329596309
215,23.22073866495296
255,25.561253215681288
295,25.753249083950136
2,1, 5, 3, 0,11, 0.00,10.00,Wednesday
8,16.269366096613419
2,1, 5, 3, 0,11,10.00,20.00,Wednesday
8,17.000714743449615
2,1, 5, 3, 0,11,20.00,30.00,Wednesday
8,16.8286651814921
2,1, 5, 3, 0,11,30.00,40.00,Wednesday
8,16.903409143334245
2,1, 5, 3, 0,11,40.00,50.00,Wednesday
8,16.567578919769458
2,1, 5, 3, 0,11,50.00,60.00,Wednesday
8,16.924488555173526
2,1, 5, 3, 0,11, 0.00,60.00,Wednesday
95,23.647534636326044
135,26.035593668080286
175,23.9728228242867
215,23.958533909999134
255,25.94998893575804
295,26.136048265717365
2,1, 5, 3, 0,12, 0.00,10.00,Wednesday
8,17.38436596010333
2,1, 5, 3, 0,12,10.00,20.00,Wednesday
8,16.587470454218768
2,1, 5, 3, 0,12,20.00,30.00,Wednesday
8,17.611475669832904
2,1, 5, 3, 0,12,30.00,40.00,Wednesday
8,17.014839776584755
2,1, 5, 3, 0,12,40.00,50.00,Wednesday
8,17.28403000859513
2,1, 5, 3, 0,12,50.00,60.00,Wednesday
8,17.47140027560002
2,1, 5, 3, 0,12, 0.00,60.00,Wednesday
95,24.437645534881488
135,26.658886945350547
175,24.717913354727729
215,24.701790793489484
255,26.567877144163807
295,26.759018061612168
2,1, 5, 3, 0,13, 0.00,10.00,Wednesday
8,18.105587514437983
2,1, 5, 3, 0,13,10.00,20.00,Wednesday
8,17.922266239540126
2,1, 5, 3, 0,13,20.00,30.00,Wednesday
8,17.538895725809714
2,1, 5, 3, 0,13,30.00,40.00,Wednesday
8,17.679645443270034
2,1, 5, 3, 0,13,40.00,50.00,Wednesday
8,17.25937754212511
2,1, 5, 3, 0,13,50.00,60.00,Wednesday
8,17.672567674795596
2,1, 5, 3, 0,13, 0.00,60.00,Wednesday
95,25.14517457442153
135,27.37006610733786
175,25.382465259724403
215,25.37732803042115
255,27.2748131994573
295,27.484147703711288
2,1, 5, 3, 0,14, 0.00,10.00,Wednesday
8,17.877908782680437
2,1, 5, 3, 0,14,10.00,20.00,Wednesday
8,18.27061245135181
2,1, 5, 3, 0,14,20.00,30.00,Wednesday
8,18.130556233782455
2,1, 5, 3, 0,14,30.00,40.00,Wednesday
8,17.738630972433709
2,1, 5, 3, 0,14,40.00,50.00,Wednesday
8,18.30269933203036
2,1, 5, 3, 0,14,50.00,60.00,Wednesday
8,18.780949371998383
2,1, 5, 3, 0,14, 0.00,60.00,Wednesday
95,25.673650240716105
135,28.12566899209479
175,25.87800033803157
215,25.883433464727735
255,28.02816333745639
295,28.26523007057565
2,1, 5, 3, 0,15, 0.00,10.00,Wednesday
8,17.87348433688188
2,1, 5, 3, 0,15,10.00,20.00,Wednesday
8,18.025890934353837
2,1, 5, 3, 0,15,20.00,30.00,Wednesday
8,18.298112645330776
2,1, 5, 3, 0,15,30.00,40.00,Wednesday
8,18.362939717583456
2,1, 5, 3, 0,15,40.00,50.00,Wednesday
8,18.09646727497999
2,1, 5, 3, 0,15,50.00,60.00,Wednesday
8,18.36633539667435
2,1, 5, 3, 0,15, 0.00,60.00,Wednesday
95,26.304732780580279
135,28.859786018131336
175,26.513599637748457
215,26.51584316524279
255,28.761876704126676
295,29.031450194599516
2,1, 5, 3, 0,16, 0.00,10.00,Wednesday
8,18.492763882764188
2,1, 5, 3, 0,16,10.00,20.00,Wednesday
8,18.567589048826084
2,1, 5, 3, 0,16,20.00,30.00,Wednesday
8,18.09413197715125
2,1, 5, 3, 0,16,30.00,40.00,Wednesday
8,18.091251873788019
2,1, 5, 3, 0,16,40.00,50.00,Wednesday
8,17.66630739206459
2,1, 5, 3, 0,16,50.00,60.00,Wednesday
8,17.5522794612126
2,1, 5, 3, 0,16, 0.00,60.00,Wednesday
95,26.75181318099625
135,29.540076906801408
175,26.963053392065335
215,26.961341286776514
255,29.443411568122085
295,29.741199097310525
2,1, 5, 3, 0,17, 0.00,10.00,Wednesday
8,18.67787861679875
2,1, 5, 3, 0,17,10.00,20.00,Wednesday
8,17.492589763076479
2,1, 5, 3, 0,17,20.00,30.00,Wednesday
8,15.973554247795642
2,1, 5, 3, 0,17,30.00,40.00,Wednesday
8,16.39863773818785
2,1, 5, 3, 0,17,40.00,50.00,Wednesday
8,15.975400546780245
2,1, 5, 3, 0,17,50.00,60.00,Wednesday
8,16.537080416494566
2,1, 5, 3, 0,17, 0.00,60.00,Wednesday
95,25.868929459767587
135,29.75774681488124
175,25.992947549173498
215,26.03669022009123
255,29.67040958141743
295,29.982862601596439
2,1, 5, 3, 0,18, 0.00,10.00,Wednesday
8,17.413568262814235
2,1, 5, 3, 0,18,10.00,20.00,Wednesday
8,17.877267495404259
2,1, 5, 3, 0,18,20.00,30.00,Wednesday
8,17.298168922012505
2,1, 5, 3, 0,18,30.00,40.00,Wednesday
8,17.238544881284559
2,1, 5, 3, 0,18,40.00,50.00,Wednesday
8,17.411209407413059
2,1, 5, 3, 0,18,50.00,60.00,Wednesday
8,18.26083701589071
2,1, 5, 3, 0,18, 0.00,60.00,Wednesday
95,25.11441053855344
135,29.745438089233415
175,25.205402691145158
215,25.26501564149488
255,29.665845909317985
295,29.983005674081654
2,1, 5, 3, 0,19, 0.00,10.00,Wednesday
8,18.106504349580669
2,1, 5, 3, 0,19,10.00,20.00,Wednesday
8,18.130963743935774
2,1, 5, 3, 0,19,20.00,30.00,Wednesday
8,18.260033075273005
2,1, 5, 3, 0,19,30.00,40.00,Wednesday
8,18.510726053614574
2,1, 5, 3, 0,19,40.00,50.00,Wednesday
8,18.35456664906671
2,1, 5, 3, 0,19,50.00,60.00,Wednesday
8,18.275901701402739
2,1, 5, 3, 0,19, 0.00,60.00,Wednesday
95,24.69624264573964
135,29.653090792853374
175,24.82721379406098
215,24.890137334056239
255,29.577988704536684
295,29.89520650962103
2,1, 5, 3, 0,20, 0.00,10.00,Wednesday
8,18.395843731157848
2,1, 5, 3, 0,20,10.00,20.00,Wednesday
8,18.546450455915826
2,1, 5, 3, 0,20,20.00,30.00,Wednesday
8,18.416212247884496
2,1, 5, 3, 0,20,30.00,40.00,Wednesday
8,18.524072153132818
2,1, 5, 3, 0,20,40.00,50.00,Wednesday
8,18.2809353978119
2,1, 5, 3, 0,20,50.00,60.00,Wednesday
8,18.03807785993693
2,1, 5, 3, 0,20, 0.00,60.00,Wednesday
95,24.11087192472264
135,29.44550088620939
175,24.27083328587449
215,24.342627726057449
255,29.375455832981137
295,29.687207478837228
2,1, 5, 3, 0,21, 0.00,10.00,Wednesday
8,17.611833175799846
2,1, 5, 3, 0,21,10.00,20.00,Wednesday
8,17.101574985785378
2,1, 5, 3, 0,21,20.00,30.00,Wednesday
8,17.134913313455639
2,1, 5, 3, 0,21,30.00,40.00,Wednesday
8,16.868117359066976
2,1, 5, 3, 0,21,40.00,50.00,Wednesday
8,17.215036465325757
2,1, 5, 3, 0,21,50.00,60.00,Wednesday
8,16.790569324118239
2,1, 5, 3, 0,21, 0.00,60.00,Wednesday
95,23.67495649061256
135,29.147395817828529
175,23.870729361847866
215,23.939713581264255
255,29.081497588677
295,29.381103750394997
2,1, 5, 3, 0,22, 0.00,10.00,Wednesday
8,16.947512915093357
2,1, 5, 3, 0,22,10.00,20.00,Wednesday
8,17.165744374427069
2,1, 5, 3, 0,22,20.00,30.00,Wednesday
8,16.506303404613687
2,1, 5, 3, 0,22,30.00,40.00,Wednesday
8,16.50686240218422
2,1, 5, 3, 0,22,40.00,50.00,Wednesday
8,16.58631124954087
2,1, 5, 3, 0,22,50.00,60.00,Wednesday
8,16.611896233041589
2,1, 5, 3, 0,22, 0.00,60.00,Wednesday
95,23.360140459322357
135,28.741588058601008
175,23.59470043687846
215,23.658875470990897
255,28.679970096564064
295,28.963919721404407
2,1, 5, 3, 0,23, 0.00,10.00,Wednesday
8,16.16726578895277
2,1, 5, 3, 0,23,10.00,20.00,Wednesday
8,16.183332648534035
2,1, 5, 3, 0,23,20.00,30.00,Wednesday
8,16.482093079346816
2,1, 5, 3, 0,23,30.00,40.00,Wednesday
8,16.273597025284319
2,1, 5, 3, 0,23,40.00,50.00,Wednesday
8,15.907120528940938
2,1, 5, 3, 0,23,50.00,60.00,Wednesday
8,15.76525211529764
2,1, 5, 3, 0,23, 0.00,60.00,Wednesday
95,23.06769035853962
135,28.342691396730009
175,23.33011602740989
215,23.392922969092539
255,28.282659272508807
295,28.567113643661853
2,1, 5, 3, 0,24, 0.00,10.00,Wednesday
8,15.84181482484228
2,1, 5, 3, 0,24,10.00,20.00,Wednesday
8,15.652435718586
2,1, 5, 3, 0,24,20.00,30.00,Wednesday
8,15.843085857268405
2,1, 5, 3, 0,24,30.00,40.00,Wednesday
8,15.7283749704226
2,1, 5, 3, 0,24,40.00,50.00,Wednesday
8,15.536073378855662
2,1, 5, 3, 0,24,50.00,60.00,Wednesday
8,15.61280390914966
2,1, 5, 3, 0,24, 0.00,60.00,Wednesday
95,22.877339843822509
135,28.03031454482092
175,23.15410450955709
215,23.21700984487755
255,27.96990229772348
295,28.25280405329274
3,1, 5, 3, 0,Wednesday
96,46.82753460969499,38.0295806459473,16,30,54.20347242807804, 7,50
136,36.57452895221163,31.986436787908369,17,60,41.60099068288081, 8,50
176,46.12186939051267,37.55105216582943,16,30,53.328575947159979, 7,50
216,46.01887743029511,37.55802844967084,16,30,53.124486626380697, 7,50
256,36.736805029260448,32.1382473161905,18,10,41.783394609108729, 8,50
296,36.19820880823025,31.559327756781327,18,10,41.31923275304301, 8,50
2,2, 5, 4, 0, 1, 0.00,10.00,Thursday
8,16.032217382829
2,2, 5, 4, 0, 1,10.00,20.00,Thursday
8,15.537404076692644
2,2, 5, 4, 0, 1,20.00,30.00,Thursday
8,15.646594622879359
2,2, 5, 4, 0, 1,30.00,40.00,Thursday
8,15.779471805268847
2,2, 5, 4, 0, 1,40.00,50.00,Thursday
8,15.67554074784914
2,2, 5, 4, 0, 1,50.00,60.00,Thursday
8,15.491962996864214
2,2, 5, 4, 0, 1, 0.00,60.00,Thursday
95,22.67844840335857
135,27.740050750495759
175,22.966094142653927
215,23.030142172244238
255,27.678059084248458
295,27.962830160075755
2,2, 5, 4, 0, 2, 0.00,10.00,Thursday
8,15.492319967793233
2,2, 5, 4, 0, 2,10.00,20.00,Thursday
8,15.414190273976429
2,2, 5, 4, 0, 2,20.00,30.00,Thursday
8,15.675127511968523
2,2, 5, 4, 0, 2,30.00,40.00,Thursday
8,15.414366537942929
2,2, 5, 4, 0, 2,40.00,50.00,Thursday
8,15.414014307196691
2,2, 5, 4, 0, 2,50.00,60.00,Thursday
8,15.336888599377512
2,2, 5, 4, 0, 2, 0.00,60.00,Thursday
95,22.472415029305095
135,27.483252147320696
175,22.759324902206079
215,22.826087787781277
255,27.420702013544728
295,27.69393240157719
2,2, 5, 4, 0, 3, 0.00,10.00,Thursday
8,15.363728740322616
2,2, 5, 4, 0, 3,10.00,20.00,Thursday
8,15.230966590427649
2,2, 5, 4, 0, 3,20.00,30.00,Thursday
8,15.171309360293919
2,2, 5, 4, 0, 3,30.00,40.00,Thursday
8,15.186282568805315
2,2, 5, 4, 0, 3,40.00,50.00,Thursday
8,15.278816355868747
2,2, 5, 4, 0, 3,50.00,60.00,Thursday
8,15.04754967894262
2,2, 5, 4, 0, 3, 0.00,60.00,Thursday
95,22.261698166047198
135,27.20556001896505
175,22.544769880493744
215,22.613492794362107
255,27.139271689481125
295,27.404725691583339
2,2, 5, 4, 0, 4, 0.00,10.00,Thursday
8,15.053486454727198
2,2, 5, 4, 0, 4,10.00,20.00,Thursday
8,15.448778819927055
2,2, 5, 4, 0, 4,20.00,30.00,Thursday
8,15.042624816412147
2,2, 5, 4, 0, 4,30.00,40.00,Thursday
8,15.033556378098373
2,2, 5, 4, 0, 4,40.00,50.00,Thursday
8,14.485214102876816
2,2, 5, 4, 0, 4,50.00,60.00,Thursday
8,15.125544340606386
2,2, 5, 4, 0, 4, 0.00,60.00,Thursday
95,21.941526874063574
135,26.896300707987466
175,22.211737493774835
215,22.28402305687133
255,26.826893207160606
295,27.086200537951674
2,2, 5, 4, 0, 5, 0.00,10.00,Thursday
8,14.712674299416
2,2, 5, 4, 0, 5,10.00,20.00,Thursday
8,14.473728325941364
2,2, 5, 4, 0, 5,20.00,30.00,Thursday
8,14.644391307540774
2,2, 5, 4, 0, 5,30.00,40.00,Thursday
8,14.802655243139457
2,2, 5, 4, 0, 5,40.00,50.00,Thursday
8,14.62942904325202
2,2, 5, 4, 0, 5,50.00,60.00,Thursday
8,14.31036297063091
2,2, 5, 4, 0, 5, 0.00,60.00,Thursday
95,21.689823710544816
135,26.598545779779074
175,21.952277869135004
215,22.025794921976993
255,26.529167547914498
295,26.7782990373877
2,2, 5, 4, 0, 6, 0.00,10.00,Thursday
8,14.70143460791386
2,2, 5, 4, 0, 6,10.00,20.00,Thursday
8,14.520678818929957
2,2, 5, 4, 0, 6,20.00,30.00,Thursday
8,14.587681385750879
2,2, 5, 4, 0, 6,30.00,40.00,Thursday
8,14.398998401926674
2,2, 5, 4, 0, 6,40.00,50.00,Thursday
8,14.251397752162989
2,2, 5, 4, 0, 6,50.00,60.00,Thursday
8,14.437118175711309
2,2, 5, 4, 0, 6, 0.00,60.00,Thursday
95,21.44544789667651
135,26.26705136562668
175,21.70490388637633
215,21.779142529018924
255,26.198112612000583
295,26.437083212933915
2,2, 5, 4, 0, 7, 0.00,10.00,Thursday
8,14.369425938963945
2,2, 5, 4, 0, 7,10.00,20.00,Thursday
8,14.228605274294474
2,2, 5, 4, 0, 7,20.00,30.00,Thursday
8,14.619455314729312
2,2, 5, 4, 0, 7,30.00,40.00,Thursday
8,14.454058246816265
2,2, 5, 4, 0, 7,40.00,50.00,Thursday
8,14.311867834036607
2,2, 5, 4, 0, 7,50.00,60.00,Thursday
8,14.467293520970332
2,2, 5, 4, 0, 7, 0.00,60.00,Thursday
95,21.290796623477126
135,25.967751068420925
175,21.552614249091979
215,21.624571801079587
255,25.896233366863077
295,26.12358948948146
2,2, 5, 4, 0, 8, 0.00,10.00,Thursday
8,14.621156514024449
2,2, 5, 4, 0, 8,10.00,20.00,Thursday
8,14.715835117674433
2,2, 5, 4, 0, 8,20.00,30.00,Thursday
8,14.888777673767966
2,2, 5, 4, 0, 8,30.00,40.00,Thursday
8,15.217444822937905
2,2, 5, 4, 0, 8,40.00,50.00,Thursday
8,14.975377688993806
2,2, 5, 4, 0, 8,50.00,60.00,Thursday
8,15.032012770818904
2,2, 5, 4, 0, 8, 0.00,60.00,Thursday
95,21.468593692440537
135,25.78324317816112
175,21.79189210076456
215,21.809402798865638
255,25.709367139067174
295,25.91120731172973
2,2, 5, 4, 0, 9, 0.00,10.00,Thursday
8,15.50779511247116
2,2, 5, 4, 0, 9,10.00,20.00,Thursday
8,15.212751646814045
2,2, 5, 4, 0, 9,20.00,30.00,Thursday
8,15.386446401604453
2,2, 5, 4, 0, 9,30.00,40.00,Thursday
8,15.846111184880409
2,2, 5, 4, 0, 9,40.00,50.00,Thursday
8,15.960067121910031
2,2, 5, 4, 0, 9,50.00,60.00,Thursday
8,16.037740860325337
2,2, 5, 4, 0, 9, 0.00,60.00,Thursday
95,22.1176358627215
135,25.767440725988796
175,22.47656754825307
215,22.453811900215027
255,25.691106919229914
295,25.894878398468724
2,2, 5, 4, 0,10, 0.00,10.00,Thursday
8,15.6936219861432
2,2, 5, 4, 0,10,10.00,20.00,Thursday
8,15.541343518867944
2,2, 5, 4, 0,10,20.00,30.00,Thursday
8,15.734543360773533
2,2, 5, 4, 0,10,30.00,40.00,Thursday
8,15.467208297897495
2,2, 5, 4, 0,10,40.00,50.00,Thursday
8,15.810667157403126
2,2, 5, 4, 0,10,50.00,60.00,Thursday
8,15.843905632386019
2,2, 5, 4, 0,10, 0.00,60.00,Thursday
95,22.71871302386546
135,25.81960916488322
175,23.070778074012435
215,23.053211797412236
255,25.742530730046444
295,25.93871029679489
2,2, 5, 4, 0,11, 0.00,10.00,Thursday
8,16.021217027985736
2,2, 5, 4, 0,11,10.00,20.00,Thursday
8,16.24597389807649
2,2, 5, 4, 0,11,20.00,30.00,Thursday
8,16.26568367102298
2,2, 5, 4, 0,11,30.00,40.00,Thursday
8,16.20722453968999
2,2, 5, 4, 0,11,40.00,50.00,Thursday
8,16.649035705115005
2,2, 5, 4, 0,11,50.00,60.00,Thursday
8,16.51182393092556
2,2, 5, 4, 0,11, 0.00,60.00,Thursday
95,23.484341366294357
135,26.052569650937376
175,23.82987593806014
215,23.785649756018669
255,25.96755126897108
295,26.16290050803976
2,2, 5, 4, 0,12, 0.00,10.00,Thursday
8,16.578901335697084
2,2, 5, 4, 0,12,10.00,20.00,Thursday
8,17.223993440697826
2,2, 5, 4, 0,12,20.00,30.00,Thursday
8,17.25681002169435
2,2, 5, 4, 0,12,30.00,40.00,Thursday
8,17.491656605887017
2,2, 5, 4, 0,12,40.00,50.00,Thursday
8,17.72649884713628
2,2, 5, 4, 0,12,50.00,60.00,Thursday
8,17.34859164291489
2,2, 5, 4, 0,12, 0.00,60.00,Thursday
95,24.54702165363507
135,26.55917629386039
175,24.875280090152175
215,24.820802962019966
255,26.469157076428404
295,26.654164822596376
2,2, 5, 4, 0,13, 0.00,10.00,Thursday
8,17.32460979665721
2,2, 5, 4, 0,13,10.00,20.00,Thursday
8,17.956240643112769
2,2, 5, 4, 0,13,20.00,30.00,Thursday
8,17.848842830515819
2,2, 5, 4, 0,13,30.00,40.00,Thursday
8,17.41590293983548
2,2, 5, 4, 0,13,40.00,50.00,Thursday
8,17.415700165794094
2,2, 5, 4, 0,13,50.00,60.00,Thursday
8,17.481572314505489
2,2, 5, 4, 0,13, 0.00,60.00,Thursday
95,25.405751024852209
135,27.221092914578834
175,25.703264397326949
215,25.6410189081685
255,27.125254061902465
295,27.315117396333336
2,2, 5, 4, 0,14, 0.00,10.00,Thursday
8,17.8906217219713
2,2, 5, 4, 0,14,10.00,20.00,Thursday
8,17.62978280349689
2,2, 5, 4, 0,14,20.00,30.00,Thursday
8,17.560055592751696
2,2, 5, 4, 0,14,30.00,40.00,Thursday
8,17.56036703686657
2,2, 5, 4, 0,14,40.00,50.00,Thursday
8,17.29737581796852
2,2, 5, 4, 0,14,50.00,60.00,Thursday
8,17.696865814916867
2,2, 5, 4, 0,14, 0.00,60.00,Thursday
95,26.055833653242656
135,27.907079583114127
175,26.332372263015555
215,26.246277400298493
255,27.80806072640794
295,28.00606778064085
2,2, 5, 4, 0,15, 0.00,10.00,Thursday
8,17.963224393929126
2,2, 5, 4, 0,15,10.00,20.00,Thursday
8,17.360323387142367
2,2, 5, 4, 0,15,20.00,30.00,Thursday
8,17.360007449440624
2,2, 5, 4, 0,15,30.00,40.00,Thursday
8,17.291551867297195
2,2, 5, 4, 0,15,40.00,50.00,Thursday
8,17.882736292496888
2,2, 5, 4, 0,15,50.00,60.00,Thursday
8,17.550487934070988
2,2, 5, 4, 0,15, 0.00,60.00,Thursday
95,26.395902256320836
135,28.481930217388756
175,26.631778227152667
215,26.546493494731505
255,28.381774797660694
295,28.590015960042178
2,2, 5, 4, 0,16, 0.00,10.00,Thursday
8,17.821607587729028
2,2, 5, 4, 0,16,10.00,20.00,Thursday
8,18.355015006467668
2,2, 5, 4, 0,16,20.00,30.00,Thursday
8,17.942487468971995
2,2, 5, 4, 0,16,30.00,40.00,Thursday
8,17.791352702201946
2,2, 5, 4, 0,16,40.00,50.00,Thursday
8,17.875748210589767
2,2, 5, 4, 0,16,50.00,60.00,Thursday
8,17.47815192912298
2,2, 5, 4, 0,16, 0.00,60.00,Thursday
95,26.73072722382621
135,29.07648805178491
175,26.946185735932123
215,26.859426495501795
255,28.974760564714165
295,29.194439807871118
2,2, 5, 4, 0,17, 0.00,10.00,Thursday
8,17.789097608287393
2,2, 5, 4, 0,17,10.00,20.00,Thursday
8,18.26972542866572
2,2, 5, 4, 0,17,20.00,30.00,Thursday
8,18.217559589691175
2,2, 5, 4, 0,17,30.00,40.00,Thursday
8,18.084052527532746
2,2, 5, 4, 0,17,40.00,50.00,Thursday
8,17.883847483434289
2,2, 5, 4, 0,17,50.00,60.00,Thursday
8,17.749646979910957
2,2, 5, 4, 0,17, 0.00,60.00,Thursday
95,26.64980426380379
135,29.514010995240736
175,26.872216505107067
215,26.76609719770308
255,29.414435814931055
295,29.641391346944024
2,2, 5, 4, 0,18, 0.00,10.00,Thursday
8,17.614398632643554
2,2, 5, 4, 0,18,10.00,20.00,Thursday
8,17.615040382447249
2,2, 5, 4, 0,18,20.00,30.00,Thursday
8,17.68175319241165
2,2, 5, 4, 0,18,30.00,40.00,Thursday
8,17.746547739138316
2,2, 5, 4, 0,18,40.00,50.00,Thursday
8,17.88155167307833
2,2, 5, 4, 0,18,50.00,60.00,Thursday
8,17.61396909836756
2,2, 5, 4, 0,18, 0.00,60.00,Thursday
95,26.271606430460165
135,29.76445249152299
175,26.45553706588127
215,26.373911486963349
255,29.66841421894848
295,29.896791726623776
2,2, 5, 4, 0,19, 0.00,10.00,Thursday
8,17.547643317228056
2,2, 5, 4, 0,19,10.00,20.00,Thursday
8,17.41514972730026
2,2, 5, 4, 0,19,20.00,30.00,Thursday
8,17.414452263359743
2,2, 5, 4, 0,19,30.00,40.00,Thursday
8,17.61168482171729
2,2, 5, 4, 0,19,40.00,50.00,Thursday
8,17.47800606934117
2,2, 5, 4, 0,19,50.00,60.00,Thursday
8,17.344123497364867
2,2, 5, 4, 0,19, 0.00,60.00,Thursday
95,25.82360509257354
135,29.878560263883874
175,25.99744207849834
215,25.93912284097462
255,29.785317749358
295,30.011601536212895
2,2, 5, 4, 0,20, 0.00,10.00,Thursday
8,17.330680463983094
2,2, 5, 4, 0,20,10.00,20.00,Thursday
8,17.3066015135782
2,2, 5, 4, 0,20,20.00,30.00,Thursday
8,17.447124701941094
2,2, 5, 4, 0,20,30.00,40.00,Thursday
8,17.56407845936334
2,2, 5, 4, 0,20,40.00,50.00,Thursday
8,17.507447959826924
2,2, 5, 4, 0,20,50.00,60.00,Thursday
8,17.66050097641831
2,2, 5, 4, 0,20, 0.00,60.00,Thursday
95,25.126152663984045
135,29.84924515561686
175,25.302323695415227
215,25.258960522038114
255,29.759622041193386
295,29.980360243578685
2,2, 5, 4, 0,21, 0.00,10.00,Thursday
8,17.4410719211935
2,2, 5, 4, 0,21,10.00,20.00,Thursday
8,17.368294811205016
2,2, 5, 4, 0,21,20.00,30.00,Thursday
8,17.22263349128954
2,2, 5, 4, 0,21,30.00,40.00,Thursday
8,17.223436638622368
2,2, 5, 4, 0,21,40.00,50.00,Thursday
8,17.15034183460849
2,2, 5, 4, 0,21,50.00,60.00,Thursday
8,17.29035116040437
2,2, 5, 4, 0,21, 0.00,60.00,Thursday
95,24.547628261921508
135,29.744519070318974
175,24.753918433600416
215,24.708896131886779
255,29.65774418092758
295,29.871113289261137
2,2, 5, 4, 0,22, 0.00,10.00,Thursday
8,16.781062885381134
2,2, 5, 4, 0,22,10.00,20.00,Thursday
8,16.99414335031271
2,2, 5, 4, 0,22,20.00,30.00,Thursday
8,16.830673437877765
2,2, 5, 4, 0,22,30.00,40.00,Thursday
8,16.92114220541519
2,2, 5, 4, 0,22,40.00,50.00,Thursday
8,16.496429093634366
2,2, 5, 4, 0,22,50.00,60.00,Thursday
8,16.637030115747828
2,2, 5, 4, 0,22, 0.00,60.00,Thursday
95,24.125245884017877
135,29.558642030427067
175,24.37652676663681
215,24.32497137219765
255,29.474350524365339
295,29.67987856490627
2,2, 5, 4, 0,23, 0.00,10.00,Thursday
8,16.700451292377584
2,2, 5, 4, 0,23,10.00,20.00,Thursday
8,16.759403426097838
2,2, 5, 4, 0,23,20.00,30.00,Thursday
8,17.14125292925861
2,2, 5, 4, 0,23,30.00,40.00,Thursday
8,16.83522149787004
2,2, 5, 4, 0,23,40.00,50.00,Thursday
8,16.486251796648906
2,2, 5, 4, 0,23,50.00,60.00,Thursday
8,16.11001533083662
2,2, 5, 4, 0,23, 0.00,60.00,Thursday
95,23.742935228776856
135,29.308052559737985
175,24.0338686300725
215,23.979614069142888
255,29.223513962698808
295,29.41847321358141
2,2, 5, 4, 0,24, 0.00,10.00,Thursday
8,16.053155835485368
2,2, 5, 4, 0,24,10.00,20.00,Thursday
8,15.98004593077011
2,2, 5, 4, 0,24,20.00,30.00,Thursday
8,15.565020868493216
2,2, 5, 4, 0,24,30.00,40.00,Thursday
8,16.11251092042783
2,2, 5, 4, 0,24,40.00,50.00,Thursday
8,15.667218769440659
2,2, 5, 4, 0,24,50.00,60.00,Thursday
8,15.866711986239397
2,2, 5, 4, 0,24, 0.00,60.00,Thursday
95,23.448416339860484
135,29.064489873413579
175,23.764366787809647
215,23.711254445826559
255,28.980986673945258
295,29.166382409427145
3,2, 5, 4, 0,Thursday
96,45.71347119069642,37.91380282377175,16,40,53.1774692798199, 7,50
136,36.06559908375453,31.71695137164285,19,40,40.65445600133473, 9,20
176,44.969013499496579,37.4340889879081,16,40,52.331940218447908, 7,40
216,45.00127108511676,37.627761545817957,16,40,52.0985044552424, 7,50
256,36.23902605211453,31.88685314273364,19,40,40.83689698672019, 9,20
296,35.77483233293698,31.475446861333685,19,40,40.344449038924178, 9,20
2,3, 5, 5, 0, 1, 0.00,10.00,Friday
8,15.642718013028631
2,3, 5, 5, 0, 1,10.00,20.00,Friday
8,15.393623802559059
2,3, 5, 5, 0, 1,20.00,30.00,Friday
8,15.393623802559059
2,3, 5, 5, 0, 1,30.00,40.00,Friday
8,15.667744693980089
2,3, 5, 5, 0, 1,40.00,50.00,Friday
8,15.173384213633425
2,3, 5, 5, 0, 1,50.00,60.00,Friday
8,15.246245372224334
2,3, 5, 5, 0, 1, 0.00,60.00,Friday
95,23.18495153537748
135,28.798688538561536
175,23.519978331374266
215,23.468937418389844
255,28.714684454276648
295,28.897424876015138
2,3, 5, 5, 0, 2, 0.00,10.00,Friday
8,15.29716115634222
2,3, 5, 5, 0, 2,10.00,20.00,Friday
8,15.194290642877819
2,3, 5, 5, 0, 2,20.00,30.00,Friday
8,15.273236354022539
2,3, 5, 5, 0, 2,30.00,40.00,Friday
8,15.03008483623594
2,3, 5, 5, 0, 2,40.00,50.00,Friday
8,15.076385410391456
2,3, 5, 5, 0, 2,50.00,60.00,Friday
8,14.666114655258705
2,3, 5, 5, 0, 2, 0.00,60.00,Friday
95,22.9216818540496
135,28.488193001567685
175,23.266993704189617
215,23.219437074567339
255,28.404921954423288
295,28.5819482575278
2,3, 5, 5, 0, 3, 0.00,10.00,Friday
8,14.84214024838254
2,3, 5, 5, 0, 3,10.00,20.00,Friday
8,14.665945017831023
2,3, 5, 5, 0, 3,20.00,30.00,Friday
8,14.858213728505963
2,3, 5, 5, 0, 3,30.00,40.00,Friday
8,14.54269703030472
2,3, 5, 5, 0, 3,40.00,50.00,Friday
8,14.633569023291674
2,3, 5, 5, 0, 3,50.00,60.00,Friday
8,14.562130567139866
2,3, 5, 5, 0, 3, 0.00,60.00,Friday
95,22.591483250920537
135,28.100054003059598
175,22.933641510630058
215,22.89069904184548
255,28.019775959019126
295,28.189185995374005
2,3, 5, 5, 0, 4, 0.00,10.00,Friday
8,14.39566025317448
2,3, 5, 5, 0, 4,10.00,20.00,Friday
8,14.464128670844503
2,3, 5, 5, 0, 4,20.00,30.00,Friday
8,14.642691977420645
2,3, 5, 5, 0, 4,30.00,40.00,Friday
8,14.486747480138199
2,3, 5, 5, 0, 4,40.00,50.00,Friday
8,14.4823579044117
2,3, 5, 5, 0, 4,50.00,60.00,Friday
8,14.475270791468392
2,3, 5, 5, 0, 4, 0.00,60.00,Friday
95,22.301787024868447
135,27.7085919246929
175,22.639870934178686
215,22.603237058224467
255,27.62251629324191
295,27.793400384281325
2,3, 5, 5, 0, 5, 0.00,10.00,Friday
8,14.449165629404903
2,3, 5, 5, 0, 5,10.00,20.00,Friday
8,14.949940060751125
2,3, 5, 5, 0, 5,20.00,30.00,Friday
8,14.641937727270527