Program Version,EnergyPlus, Version 9.5.0-de239b2e5f, YMD=2021.12.09 19:03
1,5,Environment Title[],Latitude[deg],Longitude[deg],Time Zone[],Elevation[m]
2,8,Day of Simulation[],Month[],Day of Month[],DST Indicator[1=yes 0=no],Hour[],StartMinute[],EndMinute[],DayType
3,5,Cumulative Day of Simulation[],Month[],Day of Month[],DST Indicator[1=yes 0=no],DayType  ! When Daily Report Variables Requested
4,2,Cumulative Days of Simulation[],Month[]  ! When Monthly Report Variables Requested
5,1,Cumulative Days of Simulation[] ! When Run Period Report Variables Requested
6,1,Calendar Year of Simulation[] ! When Annual Report Variables Requested
148,1,THERMAL ZONE: JORGE,Zone Mean Air Temperature [C] !TimeStep
596,1,JORGE,Zone Thermal Comfort Fanger Model PMV [] !TimeStep
597,1,JORGE,Zone Thermal Comfort Fanger Model PPD [%] !TimeStep
End of Data Dictionary
1,RUN PERIOD 1,  18.85, -99.14,  -6.00,1280.00
2,1, 5, 3, 0, 1, 0.00,10.00,Wednesday
148,26.799080406763939
596,-0.6930903025881776
597,15.100687137281824
2,1, 5, 3, 0, 1,10.00,20.00,Wednesday
148,26.631062457017916
596,-0.7493761419129239
597,16.825723920083079
2,1, 5, 3, 0, 1,20.00,30.00,Wednesday
148,26.53759711317352
596,-0.7837239746737335
597,17.9451627418011
2,1, 5, 3, 0, 1,30.00,40.00,Wednesday
148,26.496244258742839
596,-0.8082428024890175
597,18.774958620731199
2,1, 5, 3, 0, 1,40.00,50.00,Wednesday
148,26.470160568089069
596,-0.8266371593969579
597,19.414151625410385
2,1, 5, 3, 0, 1,50.00,60.00,Wednesday
148,26.434367623768659
596,-0.8482976300986245
597,20.185032708635619
2,1, 5, 3, 0, 2, 0.00,10.00,Wednesday
148,26.391359339398336
596,-0.8722632015587495
597,21.06069538865303
2,1, 5, 3, 0, 2,10.00,20.00,Wednesday
148,26.363684366251389
596,-0.8900240429427783
597,21.72492468783318
2,1, 5, 3, 0, 2,20.00,30.00,Wednesday
148,26.301833646084725
596,-0.9210430362234869
597,22.91581547150807
2,1, 5, 3, 0, 2,30.00,40.00,Wednesday
148,26.28191620030813
596,-0.9341912493167867
597,23.432304159710314
2,1, 5, 3, 0, 2,40.00,50.00,Wednesday
148,26.266326461777959
596,-0.9453879066193017
597,23.877562404678245
2,1, 5, 3, 0, 2,50.00,60.00,Wednesday
148,26.24631048971447
596,-0.9605926640665028
597,24.490140125915589
2,1, 5, 3, 0, 3, 0.00,10.00,Wednesday
148,26.22124638394221
596,-0.9782029246713153
597,25.210929947204535
2,1, 5, 3, 0, 3,10.00,20.00,Wednesday
148,26.206639298509548
596,-0.9880888333025791
597,25.62081937639539
2,1, 5, 3, 0, 3,20.00,30.00,Wednesday
148,26.184221762948427
596,-1.0008151322039035
597,26.153984546713674
2,1, 5, 3, 0, 3,30.00,40.00,Wednesday
148,26.14750697164863
596,-1.0221096492968738
597,27.059806295051787
2,1, 5, 3, 0, 3,40.00,50.00,Wednesday
148,26.119702977084164
596,-1.0368034269767437
597,27.694695491730884
2,1, 5, 3, 0, 3,50.00,60.00,Wednesday
148,26.08964386914314
596,-1.0569688513534806
597,28.57885670540874
2,1, 5, 3, 0, 4, 0.00,10.00,Wednesday
148,26.05816013038438
596,-1.0758727335203356
597,29.420953688277579
2,1, 5, 3, 0, 4,10.00,20.00,Wednesday
148,26.033008946274877
596,-1.0904588339875892
597,30.079294372683607
2,1, 5, 3, 0, 4,20.00,30.00,Wednesday
148,26.00947963047568
596,-1.1081242423346718
597,30.886422492849009
2,1, 5, 3, 0, 4,30.00,40.00,Wednesday
148,25.943760983537556
596,-1.141217830465487
597,32.426527673815289
2,1, 5, 3, 0, 4,40.00,50.00,Wednesday
148,25.86268525110343
596,-1.1832449716326099
597,34.43272705366927
2,1, 5, 3, 0, 4,50.00,60.00,Wednesday
148,25.808870038186457
596,-1.20882252522431
597,35.67972294496761
2,1, 5, 3, 0, 5, 0.00,10.00,Wednesday
148,25.7733373441436
596,-1.2340177252512306
597,36.92619992435368
2,1, 5, 3, 0, 5,10.00,20.00,Wednesday
148,25.765596692979643
596,-1.243560016086683
597,37.402777009285049
2,1, 5, 3, 0, 5,20.00,30.00,Wednesday
148,25.760532117766404
596,-1.2490428425755583
597,37.677691444172129
2,1, 5, 3, 0, 5,30.00,40.00,Wednesday
148,25.74626125917139
596,-1.2599039205590373
597,38.224558629797119
2,1, 5, 3, 0, 5,40.00,50.00,Wednesday
148,25.744148602481816
596,-1.263336166346283
597,38.3979959715547
2,1, 5, 3, 0, 5,50.00,60.00,Wednesday
148,25.70134225497172
596,-1.2910845435182155
597,39.810697134247607
2,1, 5, 3, 0, 6, 0.00,10.00,Wednesday
148,25.65786897925312
596,-1.3130307846512113
597,40.94060647041566
2,1, 5, 3, 0, 6,10.00,20.00,Wednesday
148,25.56435390771518
596,-1.3628161216403215
597,43.54079185144358
2,1, 5, 3, 0, 6,20.00,30.00,Wednesday
148,25.500487638225484
596,-1.391525221249432
597,45.06065534168185
2,1, 5, 3, 0, 6,30.00,40.00,Wednesday
148,25.422016107822978
596,-1.4376898646434713
597,47.530182705004587
2,1, 5, 3, 0, 6,40.00,50.00,Wednesday
148,25.36020675366717
596,-1.4657310776456299
597,49.0425771526353
2,1, 5, 3, 0, 6,50.00,60.00,Wednesday
148,25.316006508792819
596,-1.4916658297195682
597,50.44761671609368
2,1, 5, 3, 0, 7, 0.00,10.00,Wednesday
148,25.30269916724033
596,-1.5017923494112489
597,50.997508853638979
2,1, 5, 3, 0, 7,10.00,20.00,Wednesday
148,25.323461495275855
596,-1.4974162222402996
597,50.75979970933724
2,1, 5, 3, 0, 7,20.00,30.00,Wednesday
148,25.31873988790903
596,-1.5072907640253484
597,51.29633072068373
2,1, 5, 3, 0, 7,30.00,40.00,Wednesday
148,25.26424386088628
596,-1.5376559267814108
597,52.94892055696791
2,1, 5, 3, 0, 7,40.00,50.00,Wednesday
148,25.229316152016638
596,-1.5499614621825338
597,53.61936372498471
2,1, 5, 3, 0, 7,50.00,60.00,Wednesday
148,25.292328897633064
596,-1.5172808562826317
597,51.83964283622291
2,1, 5, 3, 0, 8, 0.00,10.00,Wednesday
148,25.363751204345058
596,-1.492950169535112
597,50.51732414774588
2,1, 5, 3, 0, 8,10.00,20.00,Wednesday
148,25.35643944807169
596,-1.494955859750293
597,50.62620385660733
2,1, 5, 3, 0, 8,20.00,30.00,Wednesday
148,25.415235929683538
596,-1.4632264419684816
597,48.90717728799856
2,1, 5, 3, 0, 8,30.00,40.00,Wednesday
148,25.518363429412227
596,-1.4184402177775005
597,46.49701362088023
2,1, 5, 3, 0, 8,40.00,50.00,Wednesday
148,25.652470143111587
596,-1.3590882837686478
597,43.344463917208027
2,1, 5, 3, 0, 8,50.00,60.00,Wednesday
148,25.810312466311737
596,-1.2879420673801454
597,39.64979402247069
2,1, 5, 3, 0, 9, 0.00,10.00,Wednesday
148,25.93008969703596
596,-1.215383164106064
597,36.0026033676428
2,1, 5, 3, 0, 9,10.00,20.00,Wednesday
148,26.068729268920447
596,-1.163367140127317
597,33.47703125351195
2,1, 5, 3, 0, 9,20.00,30.00,Wednesday
148,26.19093226802232
596,-1.116073481664172
597,31.253063614946286
2,1, 5, 3, 0, 9,30.00,40.00,Wednesday
148,26.282727616175586
596,-1.0740719251187983
597,29.340189640593736
2,1, 5, 3, 0, 9,40.00,50.00,Wednesday
148,26.36707024519617
596,-1.0288281691948869
597,27.349111269809244
2,1, 5, 3, 0, 9,50.00,60.00,Wednesday
148,26.449103255386075
596,-0.9888931269941926
597,25.654332084342387
2,1, 5, 3, 0,10, 0.00,10.00,Wednesday
148,28.53846194045116
596,0.5800356807469818
597,12.049781318434512
2,1, 5, 3, 0,10,10.00,20.00,Wednesday
148,28.883463134253405
596,0.697752226034326
597,15.238379551736543
2,1, 5, 3, 0,10,20.00,30.00,Wednesday
148,29.156823127577327
596,0.7645583065787228
597,17.314319070152068
2,1, 5, 3, 0,10,30.00,40.00,Wednesday
148,29.64189603411441
596,0.8898854718429439
597,21.71969231788549
2,1, 5, 3, 0,10,40.00,50.00,Wednesday
148,29.815687347304917
596,0.9513443998146973
597,24.116457031802044
2,1, 5, 3, 0,10,50.00,60.00,Wednesday
148,29.795279070342528
596,0.9644888002032864
597,24.64856958832631
2,1, 5, 3, 0,11, 0.00,10.00,Wednesday
148,29.804185333905786
596,0.9758587321615995
597,25.114287467526084
2,1, 5, 3, 0,11,10.00,20.00,Wednesday
148,29.904862604762685
596,1.0243037362341448
597,27.154101493167816
2,1, 5, 3, 0,11,20.00,30.00,Wednesday
148,30.012045417632959
596,1.071654978710543
597,29.231971845660625
2,1, 5, 3, 0,11,30.00,40.00,Wednesday
148,30.08783873476801
596,1.1084459130735654
597,30.901217704119746
2,1, 5, 3, 0,11,40.00,50.00,Wednesday
148,30.141453499043853
596,1.139430644122093
597,32.34244280451145
2,1, 5, 3, 0,11,50.00,60.00,Wednesday
148,30.184094875942664
596,1.1604635075465979
597,33.3384410801479
2,1, 5, 3, 0,12, 0.00,10.00,Wednesday
148,30.284407966312338
596,1.2035839237819659
597,35.422781121071427
2,1, 5, 3, 0,12,10.00,20.00,Wednesday
148,30.317270760664294
596,1.2161002510655599
597,36.03796785531719
2,1, 5, 3, 0,12,20.00,30.00,Wednesday
148,30.433334313244268
596,1.270027341049556
597,38.73695297807364
2,1, 5, 3, 0,12,30.00,40.00,Wednesday
148,30.48260219199005
596,1.2914900204779372
597,39.831475205435278
2,1, 5, 3, 0,12,40.00,50.00,Wednesday
148,30.570555297636788
596,1.330810621175181
597,41.86360048033307
2,1, 5, 3, 0,12,50.00,60.00,Wednesday
148,30.652730259585224
596,1.3650415317266278
597,43.65811078432781
2,1, 5, 3, 0,13, 0.00,10.00,Wednesday
148,30.747598214200175
596,1.4071243300015744
597,45.89187971210536
2,1, 5, 3, 0,13,10.00,20.00,Wednesday
148,30.79755985549812
596,1.4231376996336945
597,46.74871549787251
2,1, 5, 3, 0,13,20.00,30.00,Wednesday
148,30.823283229767254
596,1.4423644606169158
597,47.78173727481139
2,1, 5, 3, 0,13,30.00,40.00,Wednesday
148,30.878488486119659
596,1.4688702885941132
597,49.2123604737905
2,1, 5, 3, 0,13,40.00,50.00,Wednesday
148,30.931863611181954
596,1.4893713752377298
597,50.323112293942489
2,1, 5, 3, 0,13,50.00,60.00,Wednesday
148,30.914775374759015
596,1.4837405555829147
597,50.017718513923387
2,1, 5, 3, 0,14, 0.00,10.00,Wednesday
148,30.839925470433444
596,1.4872986758133323
597,50.210671441197899
2,1, 5, 3, 0,14,10.00,20.00,Wednesday
148,30.892494515038015
596,1.533155174922056
597,52.70377974813083
2,1, 5, 3, 0,14,20.00,30.00,Wednesday
148,30.99833372102281
596,1.572776315885107
597,54.86266109525062
2,1, 5, 3, 0,14,30.00,40.00,Wednesday
148,31.066990384983997
596,1.6035498809044433
597,56.538476460162247
2,1, 5, 3, 0,14,40.00,50.00,Wednesday
148,31.148686440725116
596,1.649216950077265
597,59.01713939412494
2,1, 5, 3, 0,14,50.00,60.00,Wednesday
148,31.293844586997098
596,1.7080595740145457
597,62.18271720883393
2,1, 5, 3, 0,15, 0.00,10.00,Wednesday
148,31.201648068193327
596,1.6599131609470628
597,59.5954119854697
2,1, 5, 3, 0,15,10.00,20.00,Wednesday
148,31.21540200287781
596,1.6868964611160875
597,61.04896011164374
2,1, 5, 3, 0,15,20.00,30.00,Wednesday
148,31.335726241942987
596,1.7497596771247384
597,64.39666215883492
2,1, 5, 3, 0,15,30.00,40.00,Wednesday
148,31.425740573369255
596,1.7868678026000853
597,66.33966343700972
2,1, 5, 3, 0,15,40.00,50.00,Wednesday
148,31.471738669152676
596,1.8011695375984936
597,67.08057386893222
2,1, 5, 3, 0,15,50.00,60.00,Wednesday
148,31.539013408107726
596,1.8314647004964493
597,68.6336932032384
2,1, 5, 3, 0,16, 0.00,10.00,Wednesday
148,31.614101582567686
596,1.8665530199630716
597,70.40195068775417
2,1, 5, 3, 0,16,10.00,20.00,Wednesday
148,31.660722495317438
596,1.88081576591691
597,71.11047843168773
2,1, 5, 3, 0,16,20.00,30.00,Wednesday
148,31.667009526419315
596,1.8845109875851068
597,71.293028126349
2,1, 5, 3, 0,16,30.00,40.00,Wednesday
148,31.665448221096136
596,1.8859660630101499
597,71.36479412886779
2,1, 5, 3, 0,16,40.00,50.00,Wednesday
148,31.65764528115132
596,1.892368480121318
597,71.67977505005772
2,1, 5, 3, 0,16,50.00,60.00,Wednesday
148,31.529440961403077
596,1.8373929928645954
597,68.93484745725044
2,1, 5, 3, 0,17, 0.00,10.00,Wednesday
148,31.347414620332768
596,1.7922442310238083
597,66.61874335546274
2,1, 5, 3, 0,17,10.00,20.00,Wednesday
148,31.198991087603564
596,1.7389047084117773
597,63.82319468811362
2,1, 5, 3, 0,17,20.00,30.00,Wednesday
148,31.078106156665244
596,1.6923245355770378
597,61.34032595823031
2,1, 5, 3, 0,17,30.00,40.00,Wednesday
148,30.899770406464655
596,1.649658381333584
597,59.041025239948769
2,1, 5, 3, 0,17,40.00,50.00,Wednesday
148,30.795910672376534
596,1.6249630494578225
597,57.702381430487388
2,1, 5, 3, 0,17,50.00,60.00,Wednesday
148,30.86280129855445
596,1.650066795107515
597,59.06312298630349
2,1, 5, 3, 0,18, 0.00,10.00,Wednesday
148,30.843632399308278
596,1.6461312749440469
597,58.85012645001894
2,1, 5, 3, 0,18,10.00,20.00,Wednesday
148,30.78993141333646
596,1.6297316184670987
597,57.96121491720307
2,1, 5, 3, 0,18,20.00,30.00,Wednesday
148,30.75338521436493
596,1.624499765250999
597,57.677226960099
2,1, 5, 3, 0,18,30.00,40.00,Wednesday
148,30.758772175706925
596,1.6353952087273097
597,58.26842768110286
2,1, 5, 3, 0,18,40.00,50.00,Wednesday
148,30.7963850148789
596,1.6567971990793898
597,59.427063105322798
2,1, 5, 3, 0,18,50.00,60.00,Wednesday
148,30.8260182586508
596,1.6734820817020227
597,60.32736334608739
2,1, 5, 3, 0,19, 0.00,10.00,Wednesday
148,29.40542546243268
596,0.5481031439544879
597,11.288465631717273
2,1, 5, 3, 0,19,10.00,20.00,Wednesday
148,29.009714121192699
596,0.42109946216787255
597,8.69701263411082
2,1, 5, 3, 0,19,20.00,30.00,Wednesday
148,28.747687724694808
596,0.3345675175288306
597,7.328030582816211
2,1, 5, 3, 0,19,30.00,40.00,Wednesday
148,28.232772654096637
596,0.20311646445202109
597,5.855571790247083
2,1, 5, 3, 0,19,40.00,50.00,Wednesday
148,27.954419678165086
596,0.11987207652480998
597,5.297642456954847
2,1, 5, 3, 0,19,50.00,60.00,Wednesday
148,27.876691503777346
596,0.07105905814406324
597,5.104548536514201
2,1, 5, 3, 0,20, 0.00,10.00,Wednesday
148,27.86150016007276
596,0.049835580668547128
597,5.051417181861041
2,1, 5, 3, 0,20,10.00,20.00,Wednesday
148,27.82850083356353
596,0.024693748147947185
597,5.012623121376706
2,1, 5, 3, 0,20,20.00,30.00,Wednesday
148,27.780669595187839
596,-0.0019727275282612618
597,5.000080559195652
2,1, 5, 3, 0,20,30.00,40.00,Wednesday
148,27.716319962403028
596,-0.02995060207257525
597,5.018569894797153
2,1, 5, 3, 0,20,40.00,50.00,Wednesday
148,27.64602102907153
596,-0.06474051090879339
597,5.086779003413469
2,1, 5, 3, 0,20,50.00,60.00,Wednesday
148,27.57428065689011
596,-0.10519068146826384
597,5.229165828525524
2,1, 5, 3, 0,21, 0.00,10.00,Wednesday
148,27.535935234818579
596,-0.12941140600845048
597,5.346936090371386
2,1, 5, 3, 0,21,10.00,20.00,Wednesday
148,27.503302066749755
596,-0.14423873755063203
597,5.4310678219450498
2,1, 5, 3, 0,21,20.00,30.00,Wednesday
148,27.459336069804647
596,-0.17602288553352236
597,5.642262535581295
2,1, 5, 3, 0,21,30.00,40.00,Wednesday
148,27.4212536321943
596,-0.20406961562777413
597,5.86363472308706
2,1, 5, 3, 0,21,40.00,50.00,Wednesday
148,27.400186735159197
596,-0.2280411645790518
597,6.078923994565997
2,1, 5, 3, 0,21,50.00,60.00,Wednesday
148,27.35653170427774
596,-0.2694175007309817
597,6.50725977582087
2,1, 5, 3, 0,22, 0.00,10.00,Wednesday
148,27.33134886045688
596,-0.29653841976663139
597,6.827130966273529
2,1, 5, 3, 0,22,10.00,20.00,Wednesday
148,27.305009634364195
596,-0.3309339227533488
597,7.277522349012557
2,1, 5, 3, 0,22,20.00,30.00,Wednesday
148,27.24498427362223
596,-0.3675193707342775
597,7.811692138006052
2,1, 5, 3, 0,22,30.00,40.00,Wednesday
148,27.177152494488554
596,-0.3960292777508434
597,8.267489858411935
2,1, 5, 3, 0,22,40.00,50.00,Wednesday
148,27.13902952472946
596,-0.4185583000909339
597,8.652249072495153
2,1, 5, 3, 0,22,50.00,60.00,Wednesday
148,27.108959205274436
596,-0.4469257140658495
597,9.167674450997524
2,1, 5, 3, 0,23, 0.00,10.00,Wednesday
148,27.098753320943446
596,-0.45827985981944677
597,9.383666414426856
2,1, 5, 3, 0,23,10.00,20.00,Wednesday
148,27.106549364303349
596,-0.45315812643354078
597,9.28554801612313
2,1, 5, 3, 0,23,20.00,30.00,Wednesday
148,27.10716748686171
596,-0.4680948851445672
597,9.574851676769058
2,1, 5, 3, 0,23,30.00,40.00,Wednesday
148,27.069757464152546
596,-0.4936990245543632
597,10.093139263090592
2,1, 5, 3, 0,23,40.00,50.00,Wednesday
148,27.022683071972847
596,-0.513091310284206
597,10.504523784371657
2,1, 5, 3, 0,23,50.00,60.00,Wednesday
148,27.027010922745256
596,-0.5129090574804035
597,10.500581825974749
2,1, 5, 3, 0,24, 0.00,10.00,Wednesday
148,27.038291319933295
596,-0.5144971181987545
597,10.534978382807083
2,1, 5, 3, 0,24,10.00,20.00,Wednesday
148,27.033529880806783
596,-0.5254570015651306
597,10.775338753296964
2,1, 5, 3, 0,24,20.00,30.00,Wednesday
148,27.017876854280343
596,-0.539118212146256
597,11.082222236408157
2,1, 5, 3, 0,24,30.00,40.00,Wednesday
148,27.006602344598674
596,-0.5497511205816544
597,11.326673585642979
2,1, 5, 3, 0,24,40.00,50.00,Wednesday
148,26.99628680052394
596,-0.5621954559544989
597,11.618993995800054
2,1, 5, 3, 0,24,50.00,60.00,Wednesday
148,26.992781722816234
596,-0.572389942412161
597,11.863469260684326
2,2, 5, 4, 0, 1, 0.00,10.00,Thursday
148,26.978786316454575
596,-0.5866568876764581
597,12.213176918592822
2,2, 5, 4, 0, 1,10.00,20.00,Thursday
148,26.930742134557023
596,-0.6150973499125988
597,12.936657613589958
2,2, 5, 4, 0, 1,20.00,30.00,Thursday
148,26.877455281587396
596,-0.6396204735009531
597,13.588669608889049
2,2, 5, 4, 0, 1,30.00,40.00,Thursday
148,26.81989975869457
596,-0.6704463364827724
597,14.445250088641743
2,2, 5, 4, 0, 1,40.00,50.00,Thursday
148,26.785241775573394
596,-0.6877170295452474
597,14.9431494653371
2,2, 5, 4, 0, 1,50.00,60.00,Thursday
148,26.76941925702987
596,-0.7001957756326219
597,15.310926001827014
2,2, 5, 4, 0, 2, 0.00,10.00,Thursday
148,26.75727712475132
596,-0.7115921614408984
597,15.652676032398106
2,2, 5, 4, 0, 2,10.00,20.00,Thursday
148,26.73997334510616
596,-0.7244987232044862
597,16.046472588647548
2,2, 5, 4, 0, 2,20.00,30.00,Thursday
148,26.72566633137534
596,-0.7337537825936719
597,16.33327013610493
2,2, 5, 4, 0, 2,30.00,40.00,Thursday
148,26.708316861433678
596,-0.7467299110610427
597,16.74157210930217
2,2, 5, 4, 0, 2,40.00,50.00,Thursday
148,26.690311916874177
596,-0.7585490767413574
597,17.11975023154875
2,2, 5, 4, 0, 2,50.00,60.00,Thursday
148,26.668719909013796
596,-0.7734712034645556
597,17.605742866784128
2,2, 5, 4, 0, 3, 0.00,10.00,Thursday
148,26.636819363003917
596,-0.7934526159080759
597,18.271362687864824
2,2, 5, 4, 0, 3,10.00,20.00,Thursday
148,26.583009891340344
596,-0.8230081098092551
597,19.28691741215924
2,2, 5, 4, 0, 3,20.00,30.00,Thursday
148,26.548281905476597
596,-0.8435105258446937
597,20.01297642477408
2,2, 5, 4, 0, 3,30.00,40.00,Thursday
148,26.489450696940876
596,-0.8715988177547349
597,21.036099873981799
2,2, 5, 4, 0, 3,40.00,50.00,Thursday
148,26.42941317787734
596,-0.8975501256474551
597,22.010282039491956
2,2, 5, 4, 0, 3,50.00,60.00,Thursday
148,26.396003667119044
596,-0.9201870312084304
597,22.882429925902515
2,2, 5, 4, 0, 4, 0.00,10.00,Thursday
148,26.329553671389009
596,-0.9538657281740456
597,24.218000143819013
2,2, 5, 4, 0, 4,10.00,20.00,Thursday
148,26.245125428591515
596,-0.9916386796069319
597,25.768918175997486
2,2, 5, 4, 0, 4,20.00,30.00,Thursday
148,26.20980168575991
596,-1.0128822123063313
597,26.66520226453987
2,2, 5, 4, 0, 4,30.00,40.00,Thursday
148,26.15351180339409
596,-1.040322267534302
597,27.84791611828379
2,2, 5, 4, 0, 4,40.00,50.00,Thursday
148,26.09757488338418
596,-1.0640853378956894
597,28.894379931501449
2,2, 5, 4, 0, 4,50.00,60.00,Thursday
148,26.09538492941241
596,-1.0684800862939355
597,29.090130473844753
2,2, 5, 4, 0, 5, 0.00,10.00,Thursday
148,26.040079959721536
596,-1.100357299445282
597,30.530243843900906
2,2, 5, 4, 0, 5,10.00,20.00,Thursday
148,25.977140835690674
596,-1.1306306575308734
597,31.929917662122834
2,2, 5, 4, 0, 5,20.00,30.00,Thursday
148,25.949372021660758
596,-1.1423166529238543
597,32.47827674205162
2,2, 5, 4, 0, 5,30.00,40.00,Thursday
148,25.944729442669698
596,-1.1508660278307217
597,32.88222448815429
2,2, 5, 4, 0, 5,40.00,50.00,Thursday
148,25.918820536303746
596,-1.1710183695849439
597,33.843468392514498
2,2, 5, 4, 0, 5,50.00,60.00,Thursday
148,25.87019088975468
596,-1.1959570596057903
597,35.05010784274113
2,2, 5, 4, 0, 6, 0.00,10.00,Thursday
148,25.839029672713296
596,-1.2085325786553352
597,35.66548130151516
2,2, 5, 4, 0, 6,10.00,20.00,Thursday
148,25.77412903112698
596,-1.2486635609877229
597,37.65864876571216
2,2, 5, 4, 0, 6,20.00,30.00,Thursday
148,25.74275077764323
596,-1.265878898365462
597,38.526673816997149
2,2, 5, 4, 0, 6,30.00,40.00,Thursday
148,25.668168576069399
596,-1.30647082394055
597,40.60174984827412
2,2, 5, 4, 0, 6,40.00,50.00,Thursday
148,25.59005159054432
596,-1.3400963709621732
597,42.348196214535978
2,2, 5, 4, 0, 6,50.00,60.00,Thursday
148,25.56977393189555
596,-1.3471212640203747
597,42.71591794898419
2,2, 5, 4, 0, 7, 0.00,10.00,Thursday
148,25.600837681659948
596,-1.3389406674476868
597,42.28779119535417
2,2, 5, 4, 0, 7,10.00,20.00,Thursday
148,25.63452306348752
596,-1.3301868449009722
597,41.83110884096006
2,2, 5, 4, 0, 7,20.00,30.00,Thursday
148,25.618277955089729
596,-1.3416346416215675
597,42.428636956073308
2,2, 5, 4, 0, 7,30.00,40.00,Thursday
148,25.618801207176447
596,-1.3446867217215453
597,42.58837393288368
2,2, 5, 4, 0, 7,40.00,50.00,Thursday
148,25.635478281693869
596,-1.335886606508803
597,42.12829039806558
2,2, 5, 4, 0, 7,50.00,60.00,Thursday
148,25.66301816543786
596,-1.325023823961366
597,41.56247666550167
2,2, 5, 4, 0, 8, 0.00,10.00,Thursday
148,25.690702040342726
596,-1.3154561262624034
597,41.06612249067635
2,2, 5, 4, 0, 8,10.00,20.00,Thursday
148,25.726040152857565
596,-1.3005190849449684
597,40.295125233448818
2,2, 5, 4, 0, 8,20.00,30.00,Thursday
148,25.751621248769025
596,-1.2869355600283473
597,39.5983065147167
2,2, 5, 4, 0, 8,30.00,40.00,Thursday
148,25.803416045120117
596,-1.2567342551370214
597,38.064652621548017
2,2, 5, 4, 0, 8,40.00,50.00,Thursday
148,25.920620074240476
596,-1.203733104939346
597,35.43008729388751
2,2, 5, 4, 0, 8,50.00,60.00,Thursday
148,26.052251796724567
596,-1.1482564363250035
597,32.75867827950444
2,2, 5, 4, 0, 9, 0.00,10.00,Thursday
148,26.106471556731188
596,-1.1174676782155935
597,31.317585367621108
2,2, 5, 4, 0, 9,10.00,20.00,Thursday
148,26.17253944914577
596,-1.0966847254325563
597,30.36253924291009
2,2, 5, 4, 0, 9,20.00,30.00,Thursday
148,26.287223484525449
596,-1.035893183214768
597,27.655134603769299
2,2, 5, 4, 0, 9,30.00,40.00,Thursday
148,26.420637915865023
596,-0.9780601373110127
597,25.205037274320646
2,2, 5, 4, 0, 9,40.00,50.00,Thursday
148,26.542063108557636
596,-0.9198960926213258
597,22.87108956427248
2,2, 5, 4, 0, 9,50.00,60.00,Thursday
148,26.609363504259915
596,-0.9007212647954513
597,22.13120886090313
2,2, 5, 4, 0,10, 0.00,10.00,Thursday
148,28.58213242390033
596,0.6009260577078527
597,12.57177411338975
2,2, 5, 4, 0,10,10.00,20.00,Thursday
148,28.851758636766456
596,0.6943826002144549
597,15.138761796356917
2,2, 5, 4, 0,10,20.00,30.00,Thursday
148,29.12405394666054
596,0.7662071804763246
597,17.367976550450807
2,2, 5, 4, 0,10,30.00,40.00,Thursday
148,29.55736451678257
596,0.8739358243509678
597,21.122696449518445
2,2, 5, 4, 0,10,40.00,50.00,Thursday
148,29.72008949070482
596,0.93522747376172
597,23.473302636752196
2,2, 5, 4, 0,10,50.00,60.00,Thursday
148,29.758867156037178
596,0.9704721168316087
597,24.89302308566357
2,2, 5, 4, 0,11, 0.00,10.00,Thursday
148,29.815502648583089
596,1.0049568579666056
597,26.32882826357755
2,2, 5, 4, 0,11,10.00,20.00,Thursday
148,29.8995953124163
596,1.043642445502945
597,27.992900910623065
2,2, 5, 4, 0,11,20.00,30.00,Thursday
148,29.964084218986164
596,1.0715234264190872
597,29.226087551670774
2,2, 5, 4, 0,11,30.00,40.00,Thursday
148,30.079631745411093
596,1.1196417783596007
597,31.418328961983364
2,2, 5, 4, 0,11,40.00,50.00,Thursday
148,30.178826746607105
596,1.1544404419995527
597,33.05179709523492
2,2, 5, 4, 0,11,50.00,60.00,Thursday
148,30.2578587390851
596,1.1960868721869747
597,35.05643682417299
2,2, 5, 4, 0,12, 0.00,10.00,Thursday
148,30.40305734919392
596,1.255754496876561
597,38.01527630947716
2,2, 5, 4, 0,12,10.00,20.00,Thursday
148,30.50323043696827
596,1.291503986708884
597,39.83219095167604
2,2, 5, 4, 0,12,20.00,30.00,Thursday
148,30.598504200832609
596,1.3341099608448953
597,42.03558803622541
2,2, 5, 4, 0,12,30.00,40.00,Thursday
148,30.733058469011213
596,1.381694810589716
597,44.53871632228024
2,2, 5, 4, 0,12,40.00,50.00,Thursday
148,30.75387601580383
596,1.3947206399729109
597,45.23063586923773
2,2, 5, 4, 0,12,50.00,60.00,Thursday
148,30.755420860724685
596,1.3972756795232056
597,45.366661873491327
2,2, 5, 4, 0,13, 0.00,10.00,Thursday
148,30.85788517047297
596,1.4449977148301064
597,47.92354688669144
2,2, 5, 4, 0,13,10.00,20.00,Thursday
148,30.986230527582895
596,1.5010051640147229
597,50.95474120611544
2,2, 5, 4, 0,13,20.00,30.00,Thursday
148,31.04708523683832
596,1.5234521404885722
597,52.17548082624638
2,2, 5, 4, 0,13,30.00,40.00,Thursday
148,31.10634954878732
596,1.5464799520870978
597,53.4296569311866
2,2, 5, 4, 0,13,40.00,50.00,Thursday
148,31.150614068625218
596,1.565526782055776
597,54.46760910235347
2,2, 5, 4, 0,13,50.00,60.00,Thursday
148,31.231927911554125
596,1.6008655221771629
597,56.39241322927976
2,2, 5, 4, 0,14, 0.00,10.00,Thursday
148,31.240048303850455
596,1.6242809560133318
597,57.665346028960879
2,2, 5, 4, 0,14,10.00,20.00,Thursday
148,31.246657398321813
596,1.631225241927287
597,58.0422561326092
2,2, 5, 4, 0,14,20.00,30.00,Thursday
148,31.25071244539132
596,1.6352119214263095
597,58.258489141340557
2,2, 5, 4, 0,14,30.00,40.00,Thursday
148,31.24793207214762
596,1.6376499265216036
597,58.390666703910408
2,2, 5, 4, 0,14,40.00,50.00,Thursday
148,31.237500633840257
596,1.6360408433950758
597,58.30343449333534
2,2, 5, 4, 0,14,50.00,60.00,Thursday
148,31.342320985496156
596,1.69260004923739
597,61.355104754479118
2,2, 5, 4, 0,15, 0.00,10.00,Thursday
148,31.447889372871967
596,1.7305752728176367
597,63.38173387416836
2,2, 5, 4, 0,15,10.00,20.00,Thursday
148,31.445573990901808
596,1.729208213668547
597,63.30916653638594
2,2, 5, 4, 0,15,20.00,30.00,Thursday
148,31.437166981737499
596,1.7269412990489915
597,63.18876368852895
2,2, 5, 4, 0,15,30.00,40.00,Thursday
148,31.409844379574893
596,1.7230671206383899
597,62.982798750957879
2,2, 5, 4, 0,15,40.00,50.00,Thursday
148,31.39897781898651
596,1.7336955622175057
597,63.54724934682503
2,2, 5, 4, 0,15,50.00,60.00,Thursday
148,31.456581684999184
596,1.7684478022524053
597,65.37871661267829
2,2, 5, 4, 0,16, 0.00,10.00,Thursday
148,31.560638023342123
596,1.8138863464086555
597,67.73531560233939
2,2, 5, 4, 0,16,10.00,20.00,Thursday
148,31.65402781731415
596,1.855341401917291
597,69.84073797650751
2,2, 5, 4, 0,16,20.00,30.00,Thursday
148,31.737955617453
596,1.884928541730128
597,71.3136291681375
2,2, 5, 4, 0,16,30.00,40.00,Thursday
148,31.75823780089941
596,1.8977490625754372
597,71.9434722932174
2,2, 5, 4, 0,16,40.00,50.00,Thursday
148,31.734815119780714
596,1.884482320317829
597,71.29161355733629
2,2, 5, 4, 0,16,50.00,60.00,Thursday
148,31.710689667325853
596,1.8758078906709528
597,70.86240766916393
2,2, 5, 4, 0,17, 0.00,10.00,Thursday
148,31.688872950608123
596,1.8873912190157423
597,71.43502000379937
2,2, 5, 4, 0,17,10.00,20.00,Thursday
148,31.68029020433773
596,1.8937814650279628
597,71.74911423862375
2,2, 5, 4, 0,17,20.00,30.00,Thursday
148,31.639297368365609
596,1.876666058110642
597,70.90497262300868
2,2, 5, 4, 0,17,30.00,40.00,Thursday
148,31.64699970406329
596,1.897295487754352
597,71.92127906473657
2,2, 5, 4, 0,17,40.00,50.00,Thursday
148,31.624255072747954
596,1.8837498722016629
597,71.25546263267397
2,2, 5, 4, 0,17,50.00,60.00,Thursday
148,31.593832251382517
596,1.8686309642447725
597,70.50555853926508
2,2, 5, 4, 0,18, 0.00,10.00,Thursday
148,31.530700152824335
596,1.8492079852148793
597,69.53218648965174
2,2, 5, 4, 0,18,10.00,20.00,Thursday
148,31.53006563142658
596,1.8553387563212232
597,69.84060511680662
2,2, 5, 4, 0,18,20.00,30.00,Thursday
148,31.551059115015329
596,1.8707624952167677
597,70.6117041445811
2,2, 5, 4, 0,18,30.00,40.00,Thursday
148,31.600795974439725
596,1.8960189406723569
597,71.85878240813948
2,2, 5, 4, 0,18,40.00,50.00,Thursday
148,31.632578023636154
596,1.9122359785318377
597,72.64875948783124
2,2, 5, 4, 0,18,50.00,60.00,Thursday
148,31.588198491981946
596,1.8955983454722274
597,71.8381795568541
2,2, 5, 4, 0,19, 0.00,10.00,Thursday
148,30.10385690719376
596,0.8317139238000503
597,19.593069633990795
2,2, 5, 4, 0,19,10.00,20.00,Thursday
148,29.671824550664796
596,0.6954434960620487
597,15.170072641203007
2,2, 5, 4, 0,19,20.00,30.00,Thursday
148,29.45345323260666
596,0.6429418702715896
597,13.678983703749978
2,2, 5, 4, 0,19,30.00,40.00,Thursday
148,28.966158694164784
596,0.5076933492080479
597,10.388379707969037
2,2, 5, 4, 0,19,40.00,50.00,Thursday
148,28.7883354812274
596,0.4422721799392377
597,9.080751464319036
2,2, 5, 4, 0,19,50.00,60.00,Thursday
148,28.70958977347558
596,0.38990696895808649
597,8.166683688707593
2,2, 5, 4, 0,20, 0.00,10.00,Thursday
148,28.632265165124865
596,0.3491492284113215
597,7.536361774133667
2,2, 5, 4, 0,20,10.00,20.00,Thursday
148,28.543985364909515
596,0.30506714333895137
597,6.934140796725131
2,2, 5, 4, 0,20,20.00,30.00,Thursday
148,28.456252102732038
596,0.2618656112034434
597,6.423710403385357
2,2, 5, 4, 0,20,30.00,40.00,Thursday
148,28.381460073007209
596,0.22524250080421938
597,6.052547681106034
2,2, 5, 4, 0,20,40.00,50.00,Thursday
148,28.31667512483509
596,0.19174775814872198
597,5.762330389646607
2,2, 5, 4, 0,20,50.00,60.00,Thursday
148,28.267301124579516
596,0.16778422985274575
597,5.583476350930994
2,2, 5, 4, 0,21, 0.00,10.00,Thursday
148,28.226111412787025
596,0.14425944723325388
597,5.431191728474772
2,2, 5, 4, 0,21,10.00,20.00,Thursday
148,28.19181179563685
596,0.125587436515882
597,5.326721790184308
2,2, 5, 4, 0,21,20.00,30.00,Thursday
148,28.15259276053573
596,0.10116592288944429
597,5.2119570256726039
2,2, 5, 4, 0,21,30.00,40.00,Thursday
148,28.123713534375559
596,0.08753063061352617
597,5.158653539244057
2,2, 5, 4, 0,21,40.00,50.00,Thursday
148,28.102780522694073
596,0.07188880167044602
597,5.107004946254278
2,2, 5, 4, 0,21,50.00,60.00,Thursday
148,28.068990691149659
596,0.04751975461895968
597,5.04674909584817
2,2, 5, 4, 0,22, 0.00,10.00,Thursday
148,28.037701089637623
596,0.027729129048477149
597,5.015917259232765
2,2, 5, 4, 0,22,10.00,20.00,Thursday
148,28.001061463962093
596,0.011836018021274543
597,5.002899978674407
2,2, 5, 4, 0,22,20.00,30.00,Thursday
148,27.93640278322702
596,-0.02506811115898989
597,5.013008772421529
2,2, 5, 4, 0,22,30.00,40.00,Thursday
148,27.904340564264165
596,-0.032195376971519047
597,5.021457942499552
2,2, 5, 4, 0,22,40.00,50.00,Thursday
148,27.894795124727517
596,-0.04574215669522166