Program Version,EnergyPlus, Version 9.5.0-de239b2e5f, YMD=2021.12.08 22:32
1,5,Environment Title[],Latitude[deg],Longitude[deg],Time Zone[],Elevation[m]
2,8,Day of Simulation[],Month[],Day of Month[],DST Indicator[1=yes 0=no],Hour[],StartMinute[],EndMinute[],DayType
3,5,Cumulative Day of Simulation[],Month[],Day of Month[],DST Indicator[1=yes 0=no],DayType  ! When Daily Report Variables Requested
4,2,Cumulative Days of Simulation[],Month[]  ! When Monthly Report Variables Requested
5,1,Cumulative Days of Simulation[] ! When Run Period Report Variables Requested
6,1,Calendar Year of Simulation[] ! When Annual Report Variables Requested
148,1,THERMAL ZONE: JORGE,Zone Mean Air Temperature [C] !TimeStep
596,1,JORGE,Zone Thermal Comfort Fanger Model PMV [] !TimeStep
597,1,JORGE,Zone Thermal Comfort Fanger Model PPD [%] !TimeStep
End of Data Dictionary
1,RUN PERIOD 1,  18.85, -99.14,  -6.00,1280.00
2,1, 5, 3, 0, 1, 0.00,10.00,Wednesday
148,27.214338142543914
596,-27.939198161519795
597,100.0
2,1, 5, 3, 0, 1,10.00,20.00,Wednesday
148,27.03883213452191
596,-28.319677182960278
597,100.0
2,1, 5, 3, 0, 1,20.00,30.00,Wednesday
148,26.93048472225589
596,-28.582534997526893
597,100.0
2,1, 5, 3, 0, 1,30.00,40.00,Wednesday
148,26.86643732038141
596,-28.800132880954157
597,100.0
2,1, 5, 3, 0, 1,40.00,50.00,Wednesday
148,26.814348994351258
596,-28.987302996421815
597,100.0
2,1, 5, 3, 0, 1,50.00,60.00,Wednesday
148,26.75150835167179
596,-29.196810995154068
597,100.0
2,1, 5, 3, 0, 2, 0.00,10.00,Wednesday
148,26.68212631118618
596,-29.41754199327538
597,100.0
2,1, 5, 3, 0, 2,10.00,20.00,Wednesday
148,26.639356373340939
596,-29.585794952778863
597,100.0
2,1, 5, 3, 0, 2,20.00,30.00,Wednesday
148,26.54292033384913
596,-29.862232566613277
597,100.0
2,1, 5, 3, 0, 2,30.00,40.00,Wednesday
148,26.506166124590217
596,-30.005844124955858
597,100.0
2,1, 5, 3, 0, 2,40.00,50.00,Wednesday
148,26.46447934932448
596,-30.15128040497557
597,100.0
2,1, 5, 3, 0, 2,50.00,60.00,Wednesday
148,26.42253672839599
596,-30.314127170111389
597,100.0
2,1, 5, 3, 0, 3, 0.00,10.00,Wednesday
148,26.376295346102375
596,-30.49231285945968
597,100.0
2,1, 5, 3, 0, 3,10.00,20.00,Wednesday
148,26.34091338505176
596,-30.62422469446044
597,100.0
2,1, 5, 3, 0, 3,20.00,30.00,Wednesday
148,26.287019082369068
596,-30.79154766772957
597,100.0
2,1, 5, 3, 0, 3,30.00,40.00,Wednesday
148,26.21672655588799
596,-31.01261065983994
597,100.0
2,1, 5, 3, 0, 3,40.00,50.00,Wednesday
148,26.16038063530905
596,-31.18563316653836
597,100.0
2,1, 5, 3, 0, 3,50.00,60.00,Wednesday
148,26.10665118160676
596,-31.382611901121174
597,100.0
2,1, 5, 3, 0, 4, 0.00,10.00,Wednesday
148,26.053299175362409
596,-31.56770922752727
597,100.0
2,1, 5, 3, 0, 4,10.00,20.00,Wednesday
148,26.007363087263707
596,-31.725267307986298
597,100.0
2,1, 5, 3, 0, 4,20.00,30.00,Wednesday
148,25.973529516803603
596,-31.883234274758047
597,100.0
2,1, 5, 3, 0, 4,30.00,40.00,Wednesday
148,25.88038262027307
596,-32.158847731256987
597,100.0
2,1, 5, 3, 0, 4,40.00,50.00,Wednesday
148,25.773721854839637
596,-32.482063592410089
597,100.0
2,1, 5, 3, 0, 4,50.00,60.00,Wednesday
148,25.694065162886337
596,-32.70819924992267
597,100.0
2,1, 5, 3, 0, 5, 0.00,10.00,Wednesday
148,25.65947639842951
596,-32.8682098184533
597,100.0
2,1, 5, 3, 0, 5,10.00,20.00,Wednesday
148,25.628610057208279
596,-33.000281561802179
597,100.0
2,1, 5, 3, 0, 5,20.00,30.00,Wednesday
148,25.591725169051469
596,-33.12633022950927
597,100.0
2,1, 5, 3, 0, 5,30.00,40.00,Wednesday
148,25.54722506519804
596,-33.279568907501758
597,100.0
2,1, 5, 3, 0, 5,40.00,50.00,Wednesday
148,25.533936382354296
596,-33.35225724668793
597,100.0
2,1, 5, 3, 0, 5,50.00,60.00,Wednesday
148,25.470429380254818
596,-33.58240940565413
597,100.0
2,1, 5, 3, 0, 6, 0.00,10.00,Wednesday
148,25.407385149696098
596,-33.77745248184695
597,100.0
2,1, 5, 3, 0, 6,10.00,20.00,Wednesday
148,25.281755508116285
596,-34.15951857118948
597,100.0
2,1, 5, 3, 0, 6,20.00,30.00,Wednesday
148,25.18918865446073
596,-34.41111452018279
597,100.0
2,1, 5, 3, 0, 6,30.00,40.00,Wednesday
148,25.087208496847567
596,-34.75340969458678
597,100.0
2,1, 5, 3, 0, 6,40.00,50.00,Wednesday
148,25.003992866610763
596,-34.98683728065049
597,100.0
2,1, 5, 3, 0, 6,50.00,60.00,Wednesday
148,24.938082496891693
596,-35.20751166062819
597,100.0
2,1, 5, 3, 0, 7, 0.00,10.00,Wednesday
148,24.901773664636097
596,-35.339235220719377
597,100.0
2,1, 5, 3, 0, 7,10.00,20.00,Wednesday
148,24.898658593864299
596,-35.3870983824585
597,100.0
2,1, 5, 3, 0, 7,20.00,30.00,Wednesday
148,24.87936729544097
596,-35.50571846568719
597,100.0
2,1, 5, 3, 0, 7,30.00,40.00,Wednesday
148,24.80741004773981
596,-35.74414288111175
597,100.0
2,1, 5, 3, 0, 7,40.00,50.00,Wednesday
148,24.745908401390069
596,-35.8962375650774
597,100.0
2,1, 5, 3, 0, 7,50.00,60.00,Wednesday
148,24.784994725934234
596,-35.78432936207106
597,100.0
2,1, 5, 3, 0, 8, 0.00,10.00,Wednesday
148,24.81746608902825
596,-35.73639157651578
597,100.0
2,1, 5, 3, 0, 8,10.00,20.00,Wednesday
148,24.79872735174812
596,-35.7972097506395
597,100.0
2,1, 5, 3, 0, 8,20.00,30.00,Wednesday
148,24.835075599462468
596,-35.67790936169029
597,100.0
2,1, 5, 3, 0, 8,30.00,40.00,Wednesday
148,24.885629633427997
596,-35.526096099179138
597,100.0
2,1, 5, 3, 0, 8,40.00,50.00,Wednesday
148,24.98379319325353
596,-35.256689001374038
597,100.0
2,1, 5, 3, 0, 8,50.00,60.00,Wednesday
148,25.121473028752335
596,-34.89479410409352
597,100.0
2,1, 5, 3, 0, 9, 0.00,10.00,Wednesday
148,25.228432972041654
596,-34.517258916471408
597,100.0
2,1, 5, 3, 0, 9,10.00,20.00,Wednesday
148,25.347102900495864
596,-34.257394477854159
597,100.0
2,1, 5, 3, 0, 9,20.00,30.00,Wednesday
148,25.446138852745539
596,-34.02669059469774
597,100.0
2,1, 5, 3, 0, 9,30.00,40.00,Wednesday
148,25.520306066692159
596,-33.81333062124345
597,100.0
2,1, 5, 3, 0, 9,40.00,50.00,Wednesday
148,25.595708256614715
596,-33.562366078558557
597,100.0
2,1, 5, 3, 0, 9,50.00,60.00,Wednesday
148,25.677054444923117
596,-33.318451241803618
597,100.0
2,1, 5, 3, 0,10, 0.00,10.00,Wednesday
148,27.937570461921049
596,0.38200570461243707
597,8.038953655351364
2,1, 5, 3, 0,10,10.00,20.00,Wednesday
148,28.264610295091666
596,0.5055764430577981
597,10.34317568143166
2,1, 5, 3, 0,10,20.00,30.00,Wednesday
148,28.564278096287745
596,0.5832069445863014
597,12.127803171434707
2,1, 5, 3, 0,10,30.00,40.00,Wednesday
148,29.079059466001384
596,0.7286007961947356
597,16.173133990612585
2,1, 5, 3, 0,10,40.00,50.00,Wednesday
148,29.269102883504197
596,0.8101411464763805
597,18.840265456222299
2,1, 5, 3, 0,10,50.00,60.00,Wednesday
148,29.266422432345107
596,0.8428720013650991
597,19.99009900827278
2,1, 5, 3, 0,11, 0.00,10.00,Wednesday
148,29.303035370693875
596,0.8673749359457972
597,20.880157232259636
2,1, 5, 3, 0,11,10.00,20.00,Wednesday
148,29.44489042601718
596,0.9404660238144073
597,23.681220788501649
2,1, 5, 3, 0,11,20.00,30.00,Wednesday
148,29.587785932549733
596,1.013808726701762
597,26.70468018346145
2,1, 5, 3, 0,11,30.00,40.00,Wednesday
148,29.70445291160087
596,1.0783159923591839
597,29.530712735270514
2,1, 5, 3, 0,11,40.00,50.00,Wednesday
148,29.806259845953158
596,1.1382493289797274
597,32.286919767501789
2,1, 5, 3, 0,11,50.00,60.00,Wednesday
148,29.88795941241205
596,1.1778677982105928
597,34.17302017620547
2,1, 5, 3, 0,12, 0.00,10.00,Wednesday
148,30.050073134774313
596,1.2483910727726946
597,37.64497018217912
2,1, 5, 3, 0,12,10.00,20.00,Wednesday
148,30.13516341170429
596,1.2850908486186115
597,39.50400224089268
2,1, 5, 3, 0,12,20.00,30.00,Wednesday
148,30.33796251156521
596,1.3786581584142448
597,44.37779809720941
2,1, 5, 3, 0,12,30.00,40.00,Wednesday
148,30.43551926588915
596,1.4243713878643925
597,46.81486590543489
2,1, 5, 3, 0,12,40.00,50.00,Wednesday
148,30.591845224251157
596,1.4950048667911709
597,50.628864539745737
2,1, 5, 3, 0,12,50.00,60.00,Wednesday
148,30.735436523954456
596,1.5561930001340883
597,53.95894730177879
2,1, 5, 3, 0,13, 0.00,10.00,Wednesday
148,30.894920092807959
596,1.6271179269986008
597,57.81936462719525
2,1, 5, 3, 0,13,10.00,20.00,Wednesday
148,31.024277273504266
596,1.6791728053128706
597,60.63374233004086
2,1, 5, 3, 0,13,20.00,30.00,Wednesday
148,31.130635618042719
596,1.7366404000893574
597,63.70330498572524
2,1, 5, 3, 0,13,30.00,40.00,Wednesday
148,31.230844572438504
596,1.7855367987987657
597,66.27047340490111
2,1, 5, 3, 0,13,40.00,50.00,Wednesday
148,31.345230855610504
596,1.8347344943220319
597,68.79991360235718
2,1, 5, 3, 0,13,50.00,60.00,Wednesday
148,31.391894195967909
596,1.8572029957174372
597,69.93417580700917
2,1, 5, 3, 0,14, 0.00,10.00,Wednesday
148,31.382909570860197
596,1.8924283880544258
597,71.68271619991558
2,1, 5, 3, 0,14,10.00,20.00,Wednesday
148,31.50096138958431
596,1.971019424679663
597,75.43558151664547
2,1, 5, 3, 0,14,20.00,30.00,Wednesday
148,31.65888281881841
596,2.0413810857304699
597,78.59641025796268
2,1, 5, 3, 0,14,30.00,40.00,Wednesday
148,31.770153374681639
596,2.100707437481551
597,81.09707985633153
2,1, 5, 3, 0,14,40.00,50.00,Wednesday
148,31.883826502382744
596,2.1620271322511757
597,83.51065080041386
2,1, 5, 3, 0,14,50.00,60.00,Wednesday
148,32.08538821227644
596,2.251821987640628
597,86.71219378109508
2,1, 5, 3, 0,15, 0.00,10.00,Wednesday
148,31.87280961699982
596,-20.086876993699
597,100.0
2,1, 5, 3, 0,15,10.00,20.00,Wednesday
148,31.849195135488356
596,-19.990758056978387
597,100.0
2,1, 5, 3, 0,15,20.00,30.00,Wednesday
148,32.00256067697746
596,-19.37055483469561
597,100.0
2,1, 5, 3, 0,15,30.00,40.00,Wednesday
148,32.13594190779121
596,-18.8708308465835
597,100.0
2,1, 5, 3, 0,15,40.00,50.00,Wednesday
148,32.21952568897991
596,-18.65502943701321
597,100.0
2,1, 5, 3, 0,15,50.00,60.00,Wednesday
148,32.327111343198207
596,-18.25207794209771
597,100.0
2,1, 5, 3, 0,16, 0.00,10.00,Wednesday
148,32.44352427118805
596,-17.792245765057936
597,100.0
2,1, 5, 3, 0,16,10.00,20.00,Wednesday
148,32.54291575070127
596,-17.589999165186805
597,100.0
2,1, 5, 3, 0,16,20.00,30.00,Wednesday
148,32.57787301620192
596,-17.4948767968714
597,100.0
2,1, 5, 3, 0,16,30.00,40.00,Wednesday
148,32.74081295866115
596,1.7474996015293037
597,64.27744013444166
2,1, 5, 3, 0,16,40.00,50.00,Wednesday
148,32.856498388615317
596,1.8231425071616479
597,68.20936138812172
2,1, 5, 3, 0,16,50.00,60.00,Wednesday
148,32.74761670602257
596,1.7435943989138594
597,64.07121339855418
2,1, 5, 3, 0,17, 0.00,10.00,Wednesday
148,32.595717521830128
596,2.59175452822363
597,95.15811041045684
2,1, 5, 3, 0,17,10.00,20.00,Wednesday
148,32.48448903203516
596,2.5652233642637087
597,94.69779851508031
2,1, 5, 3, 0,17,20.00,30.00,Wednesday
148,32.38230388706327
596,2.537860536462362
597,94.19039390536875
2,1, 5, 3, 0,17,30.00,40.00,Wednesday
148,32.24621388263077
596,2.5274138358000477
597,93.9877193660883
2,1, 5, 3, 0,17,40.00,50.00,Wednesday
148,32.176744051159548
596,2.531619148890706
597,94.06990783249519
2,1, 5, 3, 0,17,50.00,60.00,Wednesday
148,32.25083918628633
596,2.5570787176773148
597,94.55027967544035
2,1, 5, 3, 0,18, 0.00,10.00,Wednesday
148,32.249185552685727
596,2.571596668287693
597,94.81118365359493
2,1, 5, 3, 0,18,10.00,20.00,Wednesday
148,32.199582069687398
596,2.5643169266601659
597,94.68152657936932
2,1, 5, 3, 0,18,20.00,30.00,Wednesday
148,32.177294117878208
596,2.565787366528181
597,94.70790484573452
2,1, 5, 3, 0,18,30.00,40.00,Wednesday
148,32.18778554590629
596,2.5685415622503258
597,94.75705505399142
2,1, 5, 3, 0,18,40.00,50.00,Wednesday
148,32.230411840973037
596,2.5834775621366576
597,95.01779451804149
2,1, 5, 3, 0,18,50.00,60.00,Wednesday
148,32.26493352584699
596,2.592588430092704
597,95.17208366038537
2,1, 5, 3, 0,19, 0.00,10.00,Wednesday
148,30.764109844374557
596,-17.621477506186634
597,100.0
2,1, 5, 3, 0,19,10.00,20.00,Wednesday
148,30.26873679502956
596,-18.601408325032844
597,100.0
2,1, 5, 3, 0,19,20.00,30.00,Wednesday
148,29.99167831495415
596,-19.188922991049489
597,100.0
2,1, 5, 3, 0,19,30.00,40.00,Wednesday
148,29.4578868831723
596,-20.087804202628769
597,100.0
2,1, 5, 3, 0,19,40.00,50.00,Wednesday
148,29.20402216986988
596,-20.61511130471926
597,100.0
2,1, 5, 3, 0,19,50.00,60.00,Wednesday
148,29.149962554784154
596,-20.900970683378089
597,100.0
2,1, 5, 3, 0,20, 0.00,10.00,Wednesday
148,29.12820388341991
596,-21.05010812211848
597,100.0
2,1, 5, 3, 0,20,10.00,20.00,Wednesday
148,29.06758009183635
596,-21.250164081585454
597,100.0
2,1, 5, 3, 0,20,20.00,30.00,Wednesday
148,28.996687241758698
596,-21.466916041190268
597,100.0
2,1, 5, 3, 0,20,30.00,40.00,Wednesday
148,28.9084476631318
596,-21.687608221481069
597,100.0
2,1, 5, 3, 0,20,40.00,50.00,Wednesday
148,28.80773548337443
596,-21.986294478094224
597,100.0
2,1, 5, 3, 0,20,50.00,60.00,Wednesday
148,28.71746557898364
596,-22.291495799971146
597,100.0
2,1, 5, 3, 0,21, 0.00,10.00,Wednesday
148,28.664465760411603
596,-22.506010010746377
597,100.0
2,1, 5, 3, 0,21,10.00,20.00,Wednesday
148,28.60539059767282
596,-22.679772407549668
597,100.0
2,1, 5, 3, 0,21,20.00,30.00,Wednesday
148,28.523672569454648
596,-22.971449381723074
597,100.0
2,1, 5, 3, 0,21,30.00,40.00,Wednesday
148,28.44954820015446
596,-23.24473310841996
597,100.0
2,1, 5, 3, 0,21,40.00,50.00,Wednesday
148,28.402253803549333
596,-23.448661322544387
597,100.0
2,1, 5, 3, 0,21,50.00,60.00,Wednesday
148,28.32464707103869
596,-23.78457791820287
597,100.0
2,1, 5, 3, 0,22, 0.00,10.00,Wednesday
148,28.268392846316556
596,-24.0242227540325
597,100.0
2,1, 5, 3, 0,22,10.00,20.00,Wednesday
148,28.211866513371477
596,-24.30857589678694
597,100.0
2,1, 5, 3, 0,22,20.00,30.00,Wednesday
148,28.134275444974727
596,-24.612253714063465
597,100.0
2,1, 5, 3, 0,22,30.00,40.00,Wednesday
148,28.04380972813874
596,-24.87744654639371
597,100.0
2,1, 5, 3, 0,22,40.00,50.00,Wednesday
148,27.978190589935
596,-25.099810862982868
597,100.0
2,1, 5, 3, 0,22,50.00,60.00,Wednesday
148,27.915839625721604
596,-25.363851214432349
597,100.0
2,1, 5, 3, 0,23, 0.00,10.00,Wednesday
148,27.892390719375994
596,-25.492930999801336
597,100.0
2,1, 5, 3, 0,23,10.00,20.00,Wednesday
148,27.860850676115445
596,-25.580082491406338
597,100.0
2,1, 5, 3, 0,23,20.00,30.00,Wednesday
148,27.81091249597504
596,-25.786349801288894
597,100.0
2,1, 5, 3, 0,23,30.00,40.00,Wednesday
148,27.757056649655217
596,-26.013325186967408
597,100.0
2,1, 5, 3, 0,23,40.00,50.00,Wednesday
148,27.683415897024998
596,-26.223782576514517
597,100.0
2,1, 5, 3, 0,23,50.00,60.00,Wednesday
148,27.657598824243249
596,-26.317001526494207
597,100.0
2,1, 5, 3, 0,24, 0.00,10.00,Wednesday
148,27.623312368032776
596,-26.447230386643377
597,100.0
2,1, 5, 3, 0,24,10.00,20.00,Wednesday
148,27.57072089729382
596,-26.627090127859206
597,100.0
2,1, 5, 3, 0,24,20.00,30.00,Wednesday
148,27.51611631043738
596,-26.80961658282313
597,100.0
2,1, 5, 3, 0,24,30.00,40.00,Wednesday
148,27.473567775353677
596,-26.96086447637021
597,100.0
2,1, 5, 3, 0,24,40.00,50.00,Wednesday
148,27.43219051322117
596,-27.12150519477239
597,100.0
2,1, 5, 3, 0,24,50.00,60.00,Wednesday
148,27.39773704423148
596,-27.263144891446879
597,100.0
2,2, 5, 4, 0, 1, 0.00,10.00,Thursday
148,27.3735103473337
596,-27.395088606169766
597,100.0
2,2, 5, 4, 0, 1,10.00,20.00,Thursday
148,27.29612463754641
596,-27.645372499068487
597,100.0
2,2, 5, 4, 0, 1,20.00,30.00,Thursday
148,27.215212831410147
596,-27.873216026422367
597,100.0
2,2, 5, 4, 0, 1,30.00,40.00,Thursday
148,27.13574102589922
596,-28.12130215117882
597,100.0
2,2, 5, 4, 0, 1,40.00,50.00,Thursday
148,27.08353725641968
596,-28.28147614708412
597,100.0
2,2, 5, 4, 0, 1,50.00,60.00,Thursday
148,27.050031267968124
596,-28.414177700723859
597,100.0
2,2, 5, 4, 0, 2, 0.00,10.00,Thursday
148,27.019214350592759
596,-28.53991987035434
597,100.0
2,2, 5, 4, 0, 2,10.00,20.00,Thursday
148,26.9809100632361
596,-28.683691063860488
597,100.0
2,2, 5, 4, 0, 2,20.00,30.00,Thursday
148,26.946120338046048
596,-28.802026860644145
597,100.0
2,2, 5, 4, 0, 2,30.00,40.00,Thursday
148,26.90869160446544
596,-28.94328463799764
597,100.0
2,2, 5, 4, 0, 2,40.00,50.00,Thursday
148,26.87125230437557
596,-29.074545396878447
597,100.0
2,2, 5, 4, 0, 2,50.00,60.00,Thursday
148,26.831358215457429
596,-29.22052272350714
597,100.0
2,2, 5, 4, 0, 3, 0.00,10.00,Thursday
148,26.78255829825544
596,-29.392719839323865
597,100.0
2,2, 5, 4, 0, 3,10.00,20.00,Thursday
148,26.712489291910015
596,-29.622324453846259
597,100.0
2,2, 5, 4, 0, 3,20.00,30.00,Thursday
148,26.669455811251866
596,-29.784602158586645
597,100.0
2,2, 5, 4, 0, 3,30.00,40.00,Thursday
148,26.594765145232608
596,-30.005302065048864
597,100.0
2,2, 5, 4, 0, 3,40.00,50.00,Thursday
148,26.513944774036799
596,-30.21992975974956
597,100.0
2,2, 5, 4, 0, 3,50.00,60.00,Thursday
148,26.470644452446665
596,-30.396558455502114
597,100.0
2,2, 5, 4, 0, 4, 0.00,10.00,Thursday
148,26.386416726668107
596,-30.652502212055184
597,100.0
2,2, 5, 4, 0, 4,10.00,20.00,Thursday
148,26.27806094118895
596,-30.9436043063609
597,100.0
2,2, 5, 4, 0, 4,20.00,30.00,Thursday
148,26.231311995663768
596,-31.116162990751126
597,100.0
2,2, 5, 4, 0, 4,30.00,40.00,Thursday
148,26.15537161152993
596,-31.339706538566568
597,100.0
2,2, 5, 4, 0, 4,40.00,50.00,Thursday
148,26.07451133150661
596,-31.550532908484845
597,100.0
2,2, 5, 4, 0, 4,50.00,60.00,Thursday
148,26.061849087669125
596,-31.623180577470874
597,100.0
2,2, 5, 4, 0, 5, 0.00,10.00,Thursday
148,25.980608183702949
596,-31.884119955175409
597,100.0
2,2, 5, 4, 0, 5,10.00,20.00,Thursday
148,25.89276794020251
596,-32.13377471200854
597,100.0
2,2, 5, 4, 0, 5,20.00,30.00,Thursday
148,25.845318390325617
596,-32.2645536699092
597,100.0
2,2, 5, 4, 0, 5,30.00,40.00,Thursday
148,25.825067660637666
596,-32.36992591238802
597,100.0
2,2, 5, 4, 0, 5,40.00,50.00,Thursday
148,25.791983317449366
596,-32.53160755794054
597,100.0
2,2, 5, 4, 0, 5,50.00,60.00,Thursday
148,25.726720173844084
596,-32.737979230798789
597,100.0
2,2, 5, 4, 0, 6, 0.00,10.00,Thursday
148,25.671634334128397
596,-32.88465972193745
597,100.0
2,2, 5, 4, 0, 6,10.00,20.00,Thursday
148,25.5839230098795
596,-33.1870823083385
597,100.0
2,2, 5, 4, 0, 6,20.00,30.00,Thursday
148,25.542723539694383
596,-33.33718780814367
597,100.0
2,2, 5, 4, 0, 6,30.00,40.00,Thursday
148,25.452041628820994
596,-33.632994427316479
597,100.0
2,2, 5, 4, 0, 6,40.00,50.00,Thursday
148,25.347868929117089
596,-33.90592754715524
597,100.0
2,2, 5, 4, 0, 6,50.00,60.00,Thursday
148,25.29960936591297
596,-34.02520551965294
597,100.0
2,2, 5, 4, 0, 7, 0.00,10.00,Thursday
148,25.31765344631127
596,-34.03333816165497
597,100.0
2,2, 5, 4, 0, 7,10.00,20.00,Thursday
148,25.330397944568316
596,-34.05057305845007
597,100.0
2,2, 5, 4, 0, 7,20.00,30.00,Thursday
148,25.296165828836036
596,-34.17751392364937
597,100.0
2,2, 5, 4, 0, 7,30.00,40.00,Thursday
148,25.276145864808677
596,-34.266837985261499
597,100.0
2,2, 5, 4, 0, 7,40.00,50.00,Thursday
148,25.262647414482925
596,-34.299136287675498
597,100.0
2,2, 5, 4, 0, 7,50.00,60.00,Thursday
148,25.25720271940307
596,-34.32279359685812
597,100.0
2,2, 5, 4, 0, 8, 0.00,10.00,Thursday
148,25.2556914580566
596,-34.345668595063539
597,100.0
2,2, 5, 4, 0, 8,10.00,20.00,Thursday
148,25.26601351474641
596,-34.32653979378166
597,100.0
2,2, 5, 4, 0, 8,20.00,30.00,Thursday
148,25.280657878959496
596,-34.28995422303928
597,100.0
2,2, 5, 4, 0, 8,30.00,40.00,Thursday
148,25.31969147639182
596,-34.159424378915748
597,100.0
2,2, 5, 4, 0, 8,40.00,50.00,Thursday
148,25.39889482852638
596,-33.92938391534663
597,100.0
2,2, 5, 4, 0, 8,50.00,60.00,Thursday
148,25.50583559826494
596,-33.664214653102749
597,100.0
2,2, 5, 4, 0, 9, 0.00,10.00,Thursday
148,25.555759813494054
596,-33.50723712784938
597,100.0
2,2, 5, 4, 0, 9,10.00,20.00,Thursday
148,25.609112901972883
596,-33.42044910574232
597,100.0
2,2, 5, 4, 0, 9,20.00,30.00,Thursday
148,25.70469643675316
596,-33.10355550014389
597,100.0
2,2, 5, 4, 0, 9,30.00,40.00,Thursday
148,25.818696312548
596,-32.795796244250677
597,100.0
2,2, 5, 4, 0, 9,40.00,50.00,Thursday
148,25.926715165874627
596,-32.47678261515262
597,100.0
2,2, 5, 4, 0, 9,50.00,60.00,Thursday
148,25.987649359880775
596,-32.36794220130656
597,100.0
2,2, 5, 4, 0,10, 0.00,10.00,Thursday
148,28.15049271383328
596,0.45477051687802996
597,9.316315238750022
2,2, 5, 4, 0,10,10.00,20.00,Thursday
148,28.384307820156957
596,0.5510197915170383
597,11.356167621293182
2,2, 5, 4, 0,10,20.00,30.00,Thursday
148,28.68080737889651
596,0.632366233681341
597,13.393078969828395
2,2, 5, 4, 0,10,30.00,40.00,Thursday
148,29.13951701170085
596,0.759399128242065
597,17.14717976733121
2,2, 5, 4, 0,10,40.00,50.00,Thursday
148,29.310213967894748
596,0.8376740432207207
597,19.80449663838867
2,2, 5, 4, 0,10,50.00,60.00,Thursday
148,29.354976872766256
596,0.8887687087893091
597,21.677552583446429
2,2, 5, 4, 0,11, 0.00,10.00,Thursday
148,29.428548373406117
596,0.9418919751428598
597,23.738005479210828
2,2, 5, 4, 0,11,10.00,20.00,Thursday
148,29.535323141264724
596,1.0000623596975858
597,26.122275867828507
2,2, 5, 4, 0,11,20.00,30.00,Thursday
148,29.61448657459669
596,1.036883918289618
597,27.698195255331883
2,2, 5, 4, 0,11,30.00,40.00,Thursday
148,29.753548919337825
596,1.0994641977368487
597,30.489418892923739
2,2, 5, 4, 0,11,40.00,50.00,Thursday
148,29.881859347353367
596,1.1538920621132727
597,33.02575549016312
2,2, 5, 4, 0,11,50.00,60.00,Thursday
148,29.980124968711693
596,1.2073087030753816
597,35.60539305810512
2,2, 5, 4, 0,12, 0.00,10.00,Thursday
148,30.153185048688255
596,1.2823573548336494
597,39.36440869137605
2,2, 5, 4, 0,12,10.00,20.00,Thursday
148,30.281781058057307
596,1.3343351233089536
597,42.04733317684974
2,2, 5, 4, 0,12,20.00,30.00,Thursday
148,30.407471407869396
596,1.3934247748923719
597,45.161683591201029
2,2, 5, 4, 0,12,30.00,40.00,Thursday
148,30.596825448412397
596,1.4705984014495664
597,49.30586130017993
2,2, 5, 4, 0,12,40.00,50.00,Thursday
148,30.65124154614067
596,1.5022084043369469
597,51.02011444660099
2,2, 5, 4, 0,12,50.00,60.00,Thursday
148,30.693201884686645
596,1.524487599549043
597,52.23184381202762
2,2, 5, 4, 0,13, 0.00,10.00,Thursday
148,30.85373226991313
596,1.597731742342289
597,56.221860010629637
2,2, 5, 4, 0,13,10.00,20.00,Thursday
148,31.034700992114059
596,1.6786729919524766
597,60.60684816150316
2,2, 5, 4, 0,13,20.00,30.00,Thursday
148,31.14300813615983
596,1.7236648502628658
597,63.01459205851216
2,2, 5, 4, 0,13,30.00,40.00,Thursday
148,31.26271196118092
596,1.7730681236611237
597,65.62043124770408
2,2, 5, 4, 0,13,40.00,50.00,Thursday
148,31.358680994176575
596,1.8165865082397835
597,67.87382551611272
2,2, 5, 4, 0,13,50.00,60.00,Thursday
148,31.50081779792865
596,1.8778078662163738
597,70.96157115370505
2,2, 5, 4, 0,14, 0.00,10.00,Thursday
148,31.580275229084618
596,1.9335040259104475
597,73.6713214763042
2,2, 5, 4, 0,14,10.00,20.00,Thursday
148,31.637524147945148
596,1.9637695443624675
597,75.09871153862459
2,2, 5, 4, 0,14,20.00,30.00,Thursday
148,31.68771150163236
596,1.9901121424036088
597,76.31303962252325
2,2, 5, 4, 0,14,30.00,40.00,Thursday
148,31.739156047424314
596,2.01729263971852
597,77.53714341994915
2,2, 5, 4, 0,14,40.00,50.00,Thursday
148,31.776167068355848
596,2.038074242612857
597,78.45245416645656
2,2, 5, 4, 0,14,50.00,60.00,Thursday
148,31.939496741575618
596,2.120315075547701
597,81.88827271666553
2,2, 5, 4, 0,15, 0.00,10.00,Thursday
148,31.96405296892887
596,-19.991019809106157
597,100.0
2,2, 5, 4, 0,15,10.00,20.00,Thursday
148,31.951868494045017
596,-20.030736818489396
597,100.0
2,2, 5, 4, 0,15,20.00,30.00,Thursday
148,31.96605403229575
596,-20.00408950632305
597,100.0
2,2, 5, 4, 0,15,30.00,40.00,Thursday
148,31.970973940498454
596,-20.052372911872547
597,100.0
2,2, 5, 4, 0,15,40.00,50.00,Thursday
148,31.999883126297634
596,-19.938797230491536
597,100.0
2,2, 5, 4, 0,15,50.00,60.00,Thursday
148,32.094099036781958
596,-19.57509821948074
597,100.0
2,2, 5, 4, 0,16, 0.00,10.00,Thursday
148,32.22898107557775
596,-19.00116163718772
597,100.0
2,2, 5, 4, 0,16,10.00,20.00,Thursday
148,32.36662579037222
596,-18.478036050935466
597,100.0
2,2, 5, 4, 0,16,20.00,30.00,Thursday
148,32.50667544709366
596,-18.13545354798103
597,100.0
2,2, 5, 4, 0,16,30.00,40.00,Thursday
148,32.68324296139984
596,1.6339508418525764
597,58.19010192174715
2,2, 5, 4, 0,16,40.00,50.00,Thursday
148,32.711553702644099
596,1.64402359975146
597,58.73600169494076
2,2, 5, 4, 0,16,50.00,60.00,Thursday
148,32.72584284725868
596,1.6553403016093667
597,59.34831819201709
2,2, 5, 4, 0,17, 0.00,10.00,Thursday
148,32.76509177759489
596,2.5500876278071478
597,94.42129070521958
2,2, 5, 4, 0,17,10.00,20.00,Thursday
148,32.81356924040301
596,2.5823457017346018
597,94.99837638037849
2,2, 5, 4, 0,17,20.00,30.00,Thursday
148,32.792336417778368
596,2.5812200033907315
597,94.97900879286088
2,2, 5, 4, 0,17,30.00,40.00,Thursday
148,32.84096257136132
596,2.6250244425913116
597,95.69277372287692
2,2, 5, 4, 0,17,40.00,50.00,Thursday
148,32.83774965047805
596,2.6277333686635249
597,95.7342778221398
2,2, 5, 4, 0,17,50.00,60.00,Thursday
148,32.82324069180312
596,2.6260474519322769
597,95.70848285259663
2,2, 5, 4, 0,18, 0.00,10.00,Thursday
148,32.792299899841598
596,2.626538442511744
597,95.71600715792914
2,2, 5, 4, 0,18,10.00,20.00,Thursday
148,32.812616605455989
596,2.6442515985586687
597,95.98090150257662
2,2, 5, 4, 0,18,20.00,30.00,Thursday
148,32.85810743298239
596,2.6699186279224897
597,96.3425849047752
2,2, 5, 4, 0,18,30.00,40.00,Thursday
148,32.93602388504812
596,2.711948466498444
597,96.88066055469811
2,2, 5, 4, 0,18,40.00,50.00,Thursday
148,32.988433533879298
596,2.746820199851612
597,97.27888182420256
2,2, 5, 4, 0,18,50.00,60.00,Thursday
148,32.956123754092597
596,2.7520658510831335
597,97.33518452806875
2,2, 5, 4, 0,19, 0.00,10.00,Thursday
148,31.435987195135629
596,-15.729347569189346
597,100.0
2,2, 5, 4, 0,19,10.00,20.00,Thursday
148,30.924271858539325
596,-16.65989055590766
597,100.0
2,2, 5, 4, 0,19,20.00,30.00,Thursday
148,30.69283037417592
596,-17.008918872170506
597,100.0
2,2, 5, 4, 0,19,30.00,40.00,Thursday
148,30.18842290377588
596,-17.87936065840368
597,100.0
2,2, 5, 4, 0,19,40.00,50.00,Thursday
148,30.036914284109828
596,-18.228944219956334
597,100.0
2,2, 5, 4, 0,19,50.00,60.00,Thursday
148,29.982872293043429
596,-18.486114716816059
597,100.0
2,2, 5, 4, 0,20, 0.00,10.00,Thursday
148,29.9167766739718
596,-18.697228363485228
597,100.0
2,2, 5, 4, 0,20,10.00,20.00,Thursday
148,29.83373263465428
596,-18.939856151043828
597,100.0
2,2, 5, 4, 0,20,20.00,30.00,Thursday
148,29.749983097323076
596,-19.18871824889708
597,100.0
2,2, 5, 4, 0,20,30.00,40.00,Thursday
148,29.675474270316625
596,-19.41140319733923
597,100.0
2,2, 5, 4, 0,20,40.00,50.00,Thursday
148,29.607916683155417
596,-19.619872319390575
597,100.0
2,2, 5, 4, 0,20,50.00,60.00,Thursday
148,29.554745548974858
596,-19.77910483048423
597,100.0
2,2, 5, 4, 0,21, 0.00,10.00,Thursday
148,29.505496368713297
596,-19.94863063108251
597,100.0
2,2, 5, 4, 0,21,10.00,20.00,Thursday
148,29.4602295422658
596,-20.096619716785019
597,100.0
2,2, 5, 4, 0,21,20.00,30.00,Thursday
148,29.40923926572506
596,-20.27181976144377
597,100.0
2,2, 5, 4, 0,21,30.00,40.00,Thursday
148,29.36657162366298
596,-20.399620453606898
597,100.0
2,2, 5, 4, 0,21,40.00,50.00,Thursday
148,29.32751321699284
596,-20.54359776019754
597,100.0
2,2, 5, 4, 0,21,50.00,60.00,Thursday
148,29.272196642977009
596,-20.74403913660508
597,100.0
2,2, 5, 4, 0,22, 0.00,10.00,Thursday
148,29.22148475650254
596,-20.92073705292529
597,100.0
2,2, 5, 4, 0,22,10.00,20.00,Thursday
148,29.16207169316509
596,-21.074377662934034
597,100.0
2,2, 5, 4, 0,22,20.00,30.00,Thursday
148,29.075474617084717
596,-21.343192256697355
597,100.0
2,2, 5, 4, 0,22,30.00,40.00,Thursday
148,29.026263005721554
596,-21.447403020369614
597,100.0
2,2, 5, 4, 0,22,40.00,50.00,Thursday
148,28.997065671674116
596,-21.58434833023771
597,100.0
2,2, 5, 4, 0,22,50.00,60.00,Thursday
148,28.957470320439538
596,-21.747787556118508
597,100.0
2,2, 5, 4, 0,23, 0.00,10.00,Thursday
148,28.904335980224759
596,-21.916181635079484
597,100.0
2,2, 5, 4, 0,23,10.00,20.00,Thursday
148,28.833993389081784
596,-22.153986257073357
597,100.0
2,2, 5, 4, 0,23,20.00,30.00,Thursday
148,28.758202474288927
596,-22.388854901175344
597,100.0
2,2, 5, 4, 0,23,30.00,40.00,Thursday
148,28.708598661824817
596,-22.581077140070595
597,100.0
2,2, 5, 4, 0,23,40.00,50.00,Thursday
148,28.630719784654173
596,-22.805874064070559
597,100.0
2,2, 5, 4, 0,23,50.00,60.00,Thursday
148,28.565152983889484
596,-22.964927407956226
597,100.0
2,2, 5, 4, 0,24, 0.00,10.00,Thursday
148,28.53052054613975
596,-23.079533238963678
597,100.0
2,2, 5, 4, 0,24,10.00,20.00,Thursday
148,28.500359595498645
596,-23.217772030268607
597,100.0
2,2, 5, 4, 0,24,20.00,30.00,Thursday
148,28.460808681498997
596,-23.374780361821214
597,100.0
2,2, 5, 4, 0,24,30.00,40.00,Thursday
148,28.411369828391828
596,-23.550218611251883
597,100.0
2,2, 5, 4, 0,24,40.00,50.00,Thursday
148,28.35155689690221
596,-23.78086140288496
597,100.0
2,2, 5, 4, 0,24,50.00,60.00,Thursday
148,28.274838316082048
596,-23.98063058102914
597,100.0
2,3, 5, 5, 0, 1, 0.00,10.00,Friday
148,28.187844133456829
596,-24.234010803908505
597,100.0
2,3, 5, 5, 0, 1,10.00,20.00,Friday
148,28.166585566487453
596,-24.320161989168967
597,100.0
2,3, 5, 5, 0, 1,20.00,30.00,Friday
148,28.102001376300924
596,-24.512410712296988
597,100.0
2,3, 5, 5, 0, 1,30.00,40.00,Friday
148,28.053368477814865
596,-24.661847853441374
597,100.0
2,3, 5, 5, 0, 1,40.00,50.00,Friday
148,28.017353763865488
596,-24.828325006904718
597,100.0
2,3, 5, 5, 0, 1,50.00,60.00,Friday
148,27.967229049396506
596,-24.97456113828201
597,100.0
2,3, 5, 5, 0, 2, 0.00,10.00,Friday
148,27.900823174567809
596,-25.184776017324596
597,100.0
2,3, 5, 5, 0, 2,10.00,20.00,Friday
148,27.81956617726825
596,-25.448442955427305
597,100.0
2,3, 5, 5, 0, 2,20.00,30.00,Friday
148,27.730299713953447
596,-25.725667014197666
597,100.0
2,3, 5, 5, 0, 2,30.00,40.00,Friday
148,27.637370885922878
596,-26.053272364312077
597,100.0
2,3, 5, 5, 0, 2,40.00,50.00,Friday
148,27.50983485143143
596,-26.41260038487384
597,100.0
2,3, 5, 5, 0, 2,50.00,60.00,Friday
148,27.43393074281153
596,-26.663856655360413
597,100.0
2,3, 5, 5, 0, 3, 0.00,10.00,Friday