Program Version,EnergyPlus, Version 9.5.0-de239b2e5f, YMD=2021.12.09 19:09
1,5,Environment Title[],Latitude[deg],Longitude[deg],Time Zone[],Elevation[m]
2,8,Day of Simulation[],Month[],Day of Month[],DST Indicator[1=yes 0=no],Hour[],StartMinute[],EndMinute[],DayType
3,5,Cumulative Day of Simulation[],Month[],Day of Month[],DST Indicator[1=yes 0=no],DayType  ! When Daily Report Variables Requested
4,2,Cumulative Days of Simulation[],Month[]  ! When Monthly Report Variables Requested
5,1,Cumulative Days of Simulation[] ! When Run Period Report Variables Requested
6,1,Calendar Year of Simulation[] ! When Annual Report Variables Requested
148,1,THERMAL ZONE: JORGE,Zone Mean Air Temperature [C] !TimeStep
596,1,JORGE,Zone Thermal Comfort Fanger Model PMV [] !TimeStep
597,1,JORGE,Zone Thermal Comfort Fanger Model PPD [%] !TimeStep
End of Data Dictionary
1,RUN PERIOD 1,  18.85, -99.14,  -6.00,1280.00
2,1, 5, 3, 0, 1, 0.00,10.00,Wednesday
148,27.219971746964164
596,-0.43316838015589317
597,8.913393512210832
2,1, 5, 3, 0, 1,10.00,20.00,Wednesday
148,27.044558435254936
596,-0.4887799969050926
597,9.991371301936397
2,1, 5, 3, 0, 1,20.00,30.00,Wednesday
148,26.936269785484567
596,-0.5336160626698334
597,10.957650645086389
2,1, 5, 3, 0, 1,30.00,40.00,Wednesday
148,26.872193531392975
596,-0.571384344166134
597,11.839153470035
2,1, 5, 3, 0, 1,40.00,50.00,Wednesday
148,26.820020147115089
596,-0.604104663697554
597,12.652858854572714
2,1, 5, 3, 0, 1,50.00,60.00,Wednesday
148,26.757065595603373
596,-0.6406125489584373
597,13.615595619257704
2,1, 5, 3, 0, 2, 0.00,10.00,Wednesday
148,26.68757794313777
596,-0.679119629826441
597,14.693680753548933
2,1, 5, 3, 0, 2,10.00,20.00,Wednesday
148,26.644739714689565
596,-0.7081734361369294
597,15.549568520960307
2,1, 5, 3, 0, 2,20.00,30.00,Wednesday
148,26.548170881313359
596,-0.7563760077238125
597,17.04976991427479
2,1, 5, 3, 0, 2,30.00,40.00,Wednesday
148,26.51134428313816
596,-0.7815473396848801
597,17.872730848477205
2,1, 5, 3, 0, 2,40.00,50.00,Wednesday
148,26.46956144571375
596,-0.807406341730249
597,18.746230969630717
2,1, 5, 3, 0, 2,50.00,60.00,Wednesday
148,26.42755083465208
596,-0.8356780044762101
597,19.73352443008855
2,1, 5, 3, 0, 3, 0.00,10.00,Wednesday
148,26.38124884401043
596,-0.8664828266660941
597,20.847315372245136
2,1, 5, 3, 0, 3,10.00,20.00,Wednesday
148,26.345814669333558
596,-0.8891935814918665
597,21.693578647467676
2,1, 5, 3, 0, 3,20.00,30.00,Wednesday
148,26.291839013158698
596,-0.9181355704274764
597,22.80253955857178
2,1, 5, 3, 0, 3,30.00,40.00,Wednesday
148,26.221436887638839
596,-0.956446818886854
597,24.32220897334811
2,1, 5, 3, 0, 3,40.00,50.00,Wednesday
148,26.165014912497907
596,-0.986639474847903
597,25.560491167372179
2,1, 5, 3, 0, 3,50.00,60.00,Wednesday
148,26.111225692396724
596,-1.0210271873443278
597,27.01335126393232
2,1, 5, 3, 0, 4, 0.00,10.00,Wednesday
148,26.057801576805507
596,-1.0532874320541113
597,28.41634575973842
2,1, 5, 3, 0, 4,10.00,20.00,Wednesday
148,26.011768264396744
596,-1.080843533470051
597,29.644477792227037
2,1, 5, 3, 0, 4,20.00,30.00,Wednesday
148,25.977890377798155
596,-1.1080175190499738
597,30.881514536261848
2,1, 5, 3, 0, 4,30.00,40.00,Wednesday
148,25.88464333915019
596,-1.1557007251560112
597,33.111681495055609
2,1, 5, 3, 0, 4,40.00,50.00,Wednesday
148,25.77788041102772
596,-1.2118937445172087
597,35.830721551824428
2,1, 5, 3, 0, 4,50.00,60.00,Wednesday
148,25.698170289362336
596,-1.251648643154262
597,37.808621734003917
2,1, 5, 3, 0, 5, 0.00,10.00,Wednesday
148,25.66353518415582
596,-1.2794830856657669
597,39.217816185637378
2,1, 5, 3, 0, 5,10.00,20.00,Wednesday
148,25.632674874961233
596,-1.3024154948382168
597,40.392740346041737
2,1, 5, 3, 0, 5,20.00,30.00,Wednesday
148,25.595765771590476
596,-1.3243964371704072
597,41.529870768758588
2,1, 5, 3, 0, 5,30.00,40.00,Wednesday
148,25.55121212456913
596,-1.3511628893385093
597,42.92790193060485
2,1, 5, 3, 0, 5,40.00,50.00,Wednesday
148,25.53787890782302
596,-1.3638281164524018
597,43.594131327907437
2,1, 5, 3, 0, 5,50.00,60.00,Wednesday
148,25.474288955606946
596,-1.403541106226885
597,45.70062905238387
2,1, 5, 3, 0, 6, 0.00,10.00,Wednesday
148,25.41117336112178
596,-1.437226566670676
597,47.505264580070818
2,1, 5, 3, 0, 6,10.00,20.00,Wednesday
148,25.285464982882229
596,-1.503232167919324
597,51.0757428639324
2,1, 5, 3, 0, 6,20.00,30.00,Wednesday
148,25.192855646337006
596,-1.5470166241437518
597,53.458899113263949
2,1, 5, 3, 0, 6,30.00,40.00,Wednesday
148,25.09083541230874
596,-1.606366250618367
597,56.691690176786348
2,1, 5, 3, 0, 6,40.00,50.00,Wednesday
148,25.007574396608566
596,-1.647058982418424
597,58.90034742061391
2,1, 5, 3, 0, 6,50.00,60.00,Wednesday
148,24.941612535601565
596,-1.6857490304134078
597,60.98732114871983
2,1, 5, 3, 0, 7, 0.00,10.00,Wednesday
148,24.905260236168286
596,-1.709184866153544
597,62.24282694483283
2,1, 5, 3, 0, 7,10.00,20.00,Wednesday
148,24.902108924762194
596,-1.7183026099107893
597,62.72917009223122
2,1, 5, 3, 0, 7,20.00,30.00,Wednesday
148,24.882795650527507
596,-1.7387494015923575
597,63.81497444226059
2,1, 5, 3, 0, 7,30.00,40.00,Wednesday
148,24.810768509502858
596,-1.7798934025703679
597,65.97667672140462
2,1, 5, 3, 0, 7,40.00,50.00,Wednesday
148,24.74919763398942
596,-1.8065471802458833
597,67.35792763160453
2,1, 5, 3, 0, 7,50.00,60.00,Wednesday
148,24.78827598100179
596,-1.7877240313084542
597,66.38415218278837
2,1, 5, 3, 0, 8, 0.00,10.00,Wednesday
148,24.82069091026508
596,-1.7803885398598843
597,66.00248154519808
2,1, 5, 3, 0, 8,10.00,20.00,Wednesday
148,24.801899787133978
596,-1.7911550719508716
597,66.56226006919278
2,1, 5, 3, 0, 8,20.00,30.00,Wednesday
148,24.83819827325621
596,-1.7712917714129624
597,65.52755291371688
2,1, 5, 3, 0, 8,30.00,40.00,Wednesday
148,24.888706631503508
596,-1.7459064275604038
597,64.1933412178173
2,1, 5, 3, 0, 8,40.00,50.00,Wednesday
148,24.986796724503525
596,-1.7008815494596326
597,61.79885947724289
2,1, 5, 3, 0, 8,50.00,60.00,Wednesday
148,25.124400227805709
596,-1.6403178652735784
597,58.53525852066163
2,1, 5, 3, 0, 9, 0.00,10.00,Wednesday
148,25.231345612193068
596,-1.5760925534350248
597,55.04335574029947
2,1, 5, 3, 0, 9,10.00,20.00,Wednesday
148,25.349880715234087
596,-1.5323900978638548
597,52.66211363812822
2,1, 5, 3, 0, 9,20.00,30.00,Wednesday
148,25.44889728761714
596,-1.493762322068303
597,50.561409117757637
2,1, 5, 3, 0, 9,30.00,40.00,Wednesday
148,25.523092735852914
596,-1.457981606922121
597,48.62382977270145
2,1, 5, 3, 0, 9,40.00,50.00,Wednesday
148,25.59850628370962
596,-1.4157835566685043
597,46.35479031143102
2,1, 5, 3, 0, 9,50.00,60.00,Wednesday
148,25.679828045936554
596,-1.37486944491245
597,44.177238168450717
2,1, 5, 3, 0,10, 0.00,10.00,Wednesday
148,27.940275003763678
596,0.38311347078688248
597,8.056700846526653
2,1, 5, 3, 0,10,10.00,20.00,Wednesday
148,28.267383129790916
596,0.506691649647383
597,10.36696545121238
2,1, 5, 3, 0,10,20.00,30.00,Wednesday
148,28.56703185078566
596,0.5843166557182847
597,12.155208203716044
2,1, 5, 3, 0,10,30.00,40.00,Wednesday
148,29.081797520388318
596,0.7297066703088067
597,16.207404362588293
2,1, 5, 3, 0,10,40.00,50.00,Wednesday
148,29.271798183233935
596,0.8112338841910916
597,18.877926769569528
2,1, 5, 3, 0,10,50.00,60.00,Wednesday
148,29.26906890076817
596,0.8439536422057079
597,20.028862641297608
2,1, 5, 3, 0,11, 0.00,10.00,Wednesday
148,29.30563545066547
596,0.8684382189775779
597,20.919343551734515
2,1, 5, 3, 0,11,10.00,20.00,Wednesday
148,29.447443357687843
596,0.9415181845883901
597,23.723112475234033
2,1, 5, 3, 0,11,20.00,30.00,Wednesday
148,29.590314134347844
596,1.0148551497632959
597,26.749305969678006
2,1, 5, 3, 0,11,30.00,40.00,Wednesday
148,29.706946631224818
596,1.079351048166948
597,29.5772737888051
2,1, 5, 3, 0,11,40.00,50.00,Wednesday
148,29.808712127110814
596,1.1392730650757915
597,32.33503383079304
2,1, 5, 3, 0,11,50.00,60.00,Wednesday
148,29.890385252047488
596,1.178881732352258
597,34.22192484420425
2,1, 5, 3, 0,12, 0.00,10.00,Wednesday
148,30.052453030628468
596,1.2493883711381384
597,37.69504271076219
2,1, 5, 3, 0,12,10.00,20.00,Wednesday
148,30.137517219283369
596,1.2860814152263365
597,39.55463154517215
2,1, 5, 3, 0,12,20.00,30.00,Wednesday
148,30.340263896324815
596,1.3796313671898364
597,44.42935406483445
2,1, 5, 3, 0,12,30.00,40.00,Wednesday
148,30.437798605917668
596,1.425337119429141
597,46.86666177171661
2,1, 5, 3, 0,12,40.00,50.00,Wednesday
148,30.594093815401558
596,1.4959599138512748
597,50.68071878070415
2,1, 5, 3, 0,12,50.00,60.00,Wednesday
148,30.73765902697173
596,1.5571387469299803
597,54.01048716695195
2,1, 5, 3, 0,13, 0.00,10.00,Wednesday
148,30.89712039386639
596,1.6280549140120804
597,57.87022202275938
2,1, 5, 3, 0,13,10.00,20.00,Wednesday
148,31.02644262181941
596,1.680101576213761
597,60.68371023989219
2,1, 5, 3, 0,13,20.00,30.00,Wednesday
148,31.132761271493064
596,1.7375580997661369
597,63.75190582080117
2,1, 5, 3, 0,13,30.00,40.00,Wednesday
148,31.232927501747047
596,1.7864373735644173
597,66.31729261071713
2,1, 5, 3, 0,13,40.00,50.00,Wednesday
148,31.347273401772804
596,1.8356228835242675
597,68.84502556532928
2,1, 5, 3, 0,13,50.00,60.00,Wednesday
148,31.393919976412467
596,1.8580865943194272
597,69.97849074390504
2,1, 5, 3, 0,14, 0.00,10.00,Wednesday
148,31.384909505119248
596,1.893302871042343
597,71.7256354322623
2,1, 5, 3, 0,14,10.00,20.00,Wednesday
148,31.50292712762287
596,1.9718826785572828
597,75.47555966048869
2,1, 5, 3, 0,14,20.00,30.00,Wednesday
148,31.66081203682613
596,2.042233435277998
597,78.63343921190688
2,1, 5, 3, 0,14,30.00,40.00,Wednesday
148,31.77204976018187
596,2.1015500482837967
597,81.13144882851599
2,1, 5, 3, 0,14,40.00,50.00,Wednesday
148,31.88571285307284
596,2.1628622079968538
597,83.54227194892094
2,1, 5, 3, 0,14,50.00,60.00,Wednesday
148,32.087242426433579
596,2.2526474578734665
597,86.73973818462948
2,1, 5, 3, 0,15, 0.00,10.00,Wednesday
148,32.01815736372673
596,2.2201111431465665
597,85.62783310291798
2,1, 5, 3, 0,15,10.00,20.00,Wednesday
148,32.08579971237598
596,2.276695413062002
597,87.5268914873395
2,1, 5, 3, 0,15,20.00,30.00,Wednesday
148,32.25665021805084
596,2.3682697741761999
597,90.2529016376541
2,1, 5, 3, 0,15,30.00,40.00,Wednesday
148,32.380136452308168
596,2.4226636964830856
597,91.6697582862746
2,1, 5, 3, 0,15,40.00,50.00,Wednesday
148,32.453174144434118
596,2.4525984697110965
597,92.3863947958443
2,1, 5, 3, 0,15,50.00,60.00,Wednesday
148,32.559379139398007
596,2.5019357408524827
597,93.47223146616858
2,1, 5, 3, 0,16, 0.00,10.00,Wednesday
148,32.6729359957463
596,2.5565506297740585
597,94.54061268442998
2,1, 5, 3, 0,16,10.00,20.00,Wednesday
148,32.76417081132012
596,2.594258241060737
597,95.19997420664035
2,1, 5, 3, 0,16,20.00,30.00,Wednesday
148,32.79584158011862
596,2.612495919751469
597,95.49688275692951
2,1, 5, 3, 0,16,30.00,40.00,Wednesday
148,32.83009073720427
596,2.6332352507001186
597,95.8176503690076
2,1, 5, 3, 0,16,40.00,50.00,Wednesday
148,32.87158625240191
596,2.664506383411191
597,96.26845941010159
2,1, 5, 3, 0,16,50.00,60.00,Wednesday
148,32.77033526989348
596,2.6147050375177098
597,95.53189675588929
2,1, 5, 3, 0,17, 0.00,10.00,Wednesday
148,32.62643493381434
596,2.5661362567536996
597,94.71414954396087
2,1, 5, 3, 0,17,10.00,20.00,Wednesday
148,32.506697058891628
596,2.5110731367611978
597,93.6605906843642
2,1, 5, 3, 0,17,20.00,30.00,Wednesday
148,32.40196148416703
596,2.4626043807370086
597,92.61611158647547
2,1, 5, 3, 0,17,30.00,40.00,Wednesday
148,32.26291496272236
596,2.4160384827722107
597,91.50514247189014
2,1, 5, 3, 0,17,40.00,50.00,Wednesday
148,32.192197675084397
596,2.388907754162582
597,90.808064968117
2,1, 5, 3, 0,17,50.00,60.00,Wednesday
148,32.26628274903286
596,2.4205774396511146
597,91.61815759965205
2,1, 5, 3, 0,18, 0.00,10.00,Wednesday
148,32.26398526042213
596,2.4152046204675248
597,91.48426828045565
2,1, 5, 3, 0,18,10.00,20.00,Wednesday
148,32.21400704104441
596,2.394839204647241
597,90.96362931186158
2,1, 5, 3, 0,18,20.00,30.00,Wednesday
148,32.19142878439366
596,2.3878153368700825
597,90.77922018004903
2,1, 5, 3, 0,18,30.00,40.00,Wednesday
148,32.20140482126951
596,2.3907970805068019
597,90.85780933092741
2,1, 5, 3, 0,18,40.00,50.00,Wednesday
148,32.243587702701137
596,2.408212236901944
597,91.30785716989428
2,1, 5, 3, 0,18,50.00,60.00,Wednesday
148,32.27780033700877
596,2.4186729325564797
597,91.5708626948148
2,1, 5, 3, 0,19, 0.00,10.00,Wednesday
148,30.77700625588224
596,1.3671628071536693
597,43.770020334593848
2,1, 5, 3, 0,19,10.00,20.00,Wednesday
148,30.281388004497346
596,1.1872939746739029
597,34.628855350126588
2,1, 5, 3, 0,19,20.00,30.00,Wednesday
148,30.00404724758031
596,1.0799001988471793
597,29.60199204036857
2,1, 5, 3, 0,19,30.00,40.00,Wednesday
148,29.469651727538449
596,0.9134463044770075
597,22.620560744508624
2,1, 5, 3, 0,19,40.00,50.00,Wednesday
148,29.21551594014456
596,0.815531419150114
597,19.026530018002917
2,1, 5, 3, 0,19,50.00,60.00,Wednesday
148,29.161053560312334
596,0.7628737422019981
597,17.259620049922149
2,1, 5, 3, 0,20, 0.00,10.00,Wednesday
148,29.138823844632936
596,0.7353151878702149
597,16.3820182010365
2,1, 5, 3, 0,20,10.00,20.00,Wednesday
148,29.077822841320488
596,0.699035966511343
597,15.276460331913299
2,1, 5, 3, 0,20,20.00,30.00,Wednesday
148,29.006783126893489
596,0.6604568441814344
597,14.163155085163212
2,1, 5, 3, 0,20,30.00,40.00,Wednesday
148,28.9183739807025
596,0.6204644302777732
597,13.077125112238719
2,1, 5, 3, 0,20,40.00,50.00,Wednesday
148,28.81738865132345
596,0.5694298857433989
597,11.792019325366426
2,1, 5, 3, 0,20,50.00,60.00,Wednesday
148,28.726920691299854
596,0.5182599746269154
597,10.616915374195429
2,1, 5, 3, 0,21, 0.00,10.00,Wednesday
148,28.673788729643165
596,0.48280808968152469
597,9.869224581558442
2,1, 5, 3, 0,21,10.00,20.00,Wednesday
148,28.614492392209479
596,0.4533090259258052
597,9.288422696595959
2,1, 5, 3, 0,21,20.00,30.00,Wednesday
148,28.53247613104284
596,0.4027571619436407
597,8.38011564368415
2,1, 5, 3, 0,21,30.00,40.00,Wednesday
148,28.458075623772794
596,0.3551512066283196
597,7.624739002635408
2,1, 5, 3, 0,21,40.00,50.00,Wednesday
148,28.41062021849238
596,0.3176673486936993
597,7.097867464784471
2,1, 5, 3, 0,21,50.00,60.00,Wednesday
148,28.332803672959704
596,0.25742148238502418
597,6.3756654731192559
2,1, 5, 3, 0,22, 0.00,10.00,Wednesday
148,28.276367688151387
596,0.21270527361425474
597,5.938418461744391
2,1, 5, 3, 0,22,10.00,20.00,Wednesday
148,28.219675774963205
596,0.16078603646392967
597,5.5357648358288149
2,1, 5, 3, 0,22,20.00,30.00,Wednesday
148,28.141979476040086
596,0.11150547407365041
597,5.2575218168298509
2,1, 5, 3, 0,22,30.00,40.00,Wednesday
148,28.05135582409953
596,0.06858492438278859
597,5.097393436521429
2,1, 5, 3, 0,22,40.00,50.00,Wednesday
148,27.9855677492705
596,0.030586856238194215
597,5.019367285899364
2,1, 5, 3, 0,22,50.00,60.00,Wednesday
148,27.92303687204692
596,-0.015209397102772339
597,5.004788608660505
2,1, 5, 3, 0,23, 0.00,10.00,Wednesday
148,27.89957945058771
596,-0.03617803757885226
597,5.0270954498049609
2,1, 5, 3, 0,23,10.00,20.00,Wednesday
148,27.867860206431254
596,-0.050967582128711167
597,5.053779840074213
2,1, 5, 3, 0,23,20.00,30.00,Wednesday
148,27.817682043880969
596,-0.08637270212830194
597,5.154482315089538
2,1, 5, 3, 0,23,30.00,40.00,Wednesday
148,27.76379458127376
596,-0.12260996718020055
597,5.3114032238838579
2,1, 5, 3, 0,23,40.00,50.00,Wednesday
148,27.68999444278262
596,-0.15504152552910945
597,5.498126052838245
2,1, 5, 3, 0,23,50.00,60.00,Wednesday
148,27.663989102673058
596,-0.1705125205821388
597,5.602630251866785
2,1, 5, 3, 0,24, 0.00,10.00,Wednesday
148,27.62947895462147
596,-0.19228222862735867
597,5.766592855919683
2,1, 5, 3, 0,24,10.00,20.00,Wednesday
148,27.57671123899449
596,-0.22171265292076876
597,6.019748521199531
2,1, 5, 3, 0,24,20.00,30.00,Wednesday
148,27.522007687754344
596,-0.2515294189348403
597,6.313248122870505
2,1, 5, 3, 0,24,30.00,40.00,Wednesday
148,27.479389784429196
596,-0.27663637979875219
597,6.589370900548829
2,1, 5, 3, 0,24,40.00,50.00,Wednesday
148,27.437902777600525
596,-0.30386801060339477
597,6.918909457045885
2,1, 5, 3, 0,24,50.00,60.00,Wednesday
148,27.4033150182782
596,-0.32836435936900967
597,7.242142719338503
2,2, 5, 4, 0, 1, 0.00,10.00,Thursday
148,27.379072693569414
596,-0.3495286470212772
597,7.541903220366365
2,2, 5, 4, 0, 1,10.00,20.00,Thursday
148,27.301623382959819
596,-0.38864011956298979
597,8.14602457407635
2,2, 5, 4, 0, 1,20.00,30.00,Thursday
148,27.220636979058509
596,-0.4240314396303976
597,8.749004652613778
2,2, 5, 4, 0, 1,30.00,40.00,Thursday
148,27.141086674290688
596,-0.4635919825400675
597,9.486625234998514
2,2, 5, 4, 0, 1,40.00,50.00,Thursday
148,27.088833996048164
596,-0.489037489596279
597,9.996672560656862
2,2, 5, 4, 0, 1,50.00,60.00,Thursday
148,27.05528009379269
596,-0.5108621331083355
597,10.456407433205286
2,2, 5, 4, 0, 2, 0.00,10.00,Thursday
148,27.02441055477733
596,-0.5330628568925003
597,10.945198319870557
2,2, 5, 4, 0, 2,10.00,20.00,Thursday
148,26.98600313748622
596,-0.5583409315316466
597,11.527732492084099
2,2, 5, 4, 0, 2,20.00,30.00,Thursday
148,26.951109585839214
596,-0.5791608102497455
597,12.028333886291052
2,2, 5, 4, 0, 2,30.00,40.00,Thursday
148,26.913574725354409
596,-0.6039345345258442
597,12.648507832481187
2,2, 5, 4, 0, 2,40.00,50.00,Thursday
148,26.87603120833883
596,-0.6270659881615783
597,13.25161574398237
2,2, 5, 4, 0, 2,50.00,60.00,Thursday
148,26.836033948981699
596,-0.6526842973759399
597,13.946655229971754
2,2, 5, 4, 0, 3, 0.00,10.00,Thursday
148,26.78717519735088
596,-0.6827014588551259
597,14.797225376274838
2,2, 5, 4, 0, 3,10.00,20.00,Thursday
148,26.717052424400788
596,-0.7224246313625192
597,15.982705549735045
2,2, 5, 4, 0, 3,20.00,30.00,Thursday
148,26.673991977959905
596,-0.7502044813749247
597,16.852127292481243
2,2, 5, 4, 0, 3,30.00,40.00,Thursday
148,26.59923943363075
596,-0.7880443525668615
597,18.089528422064434
2,2, 5, 4, 0, 3,40.00,50.00,Thursday
148,26.518356705157168
596,-0.8249153282751184
597,19.353715419240389
2,2, 5, 4, 0, 3,50.00,60.00,Thursday
148,26.475045142849106
596,-0.8552324655600132
597,20.435973007657993
2,2, 5, 4, 0, 4, 0.00,10.00,Thursday
148,26.390783167118799
596,-0.8991180549903916
597,22.070021672925436
2,2, 5, 4, 0, 4,10.00,20.00,Thursday
148,26.28236477853585
596,-0.9489199601014223
597,24.019052082735628
2,2, 5, 4, 0, 4,20.00,30.00,Thursday
148,26.23558920041612
596,-0.9784925563261557
597,25.222885135914028
2,2, 5, 4, 0, 4,30.00,40.00,Thursday
148,26.159609168600075
596,-1.0167831331343623
597,26.83163408592722
2,2, 5, 4, 0, 4,40.00,50.00,Thursday
148,26.078698175188479
596,-1.0531037165320807
597,28.408248671570207
2,2, 5, 4, 0, 4,50.00,60.00,Thursday
148,26.065980248790106
596,-1.0657310593985857
597,28.967603236702204
2,2, 5, 4, 0, 5, 0.00,10.00,Thursday
148,25.98463735011347
596,-1.1107037936226263
597,31.00516658488951
2,2, 5, 4, 0, 5,10.00,20.00,Thursday
148,25.896732743034357
596,-1.1538866249279936
597,33.02549733498391
2,2, 5, 4, 0, 5,20.00,30.00,Thursday
148,25.849235162498208
596,-1.176894467453163
597,34.12610303902851
2,2, 5, 4, 0, 5,30.00,40.00,Thursday
148,25.828943680680355
596,-1.1957271533541119
597,35.03890002120704
2,2, 5, 4, 0, 5,40.00,50.00,Thursday
148,25.795824807534488
596,-1.2234889589617109
597,36.40318711378888
2,2, 5, 4, 0, 5,50.00,60.00,Thursday
148,25.73051091933641
596,-1.2588102205560599
597,38.169354095024029
2,2, 5, 4, 0, 6, 0.00,10.00,Thursday
148,25.67537539914073
596,-1.284217179355102
597,39.45936678380966
2,2, 5, 4, 0, 6,10.00,20.00,Thursday
148,25.587588997873696
596,-1.3365156850777927
597,42.16112958017199
2,2, 5, 4, 0, 6,20.00,30.00,Thursday
148,25.5463599417119
596,-1.3622869525382624
597,43.51290797144334
2,2, 5, 4, 0, 6,30.00,40.00,Thursday
148,25.455615607284665
596,-1.4131407271928616
597,46.213400289229337
2,2, 5, 4, 0, 6,40.00,50.00,Thursday
148,25.351373218703868
596,-1.4603683742714185
597,48.75274085718676
2,2, 5, 4, 0, 6,50.00,60.00,Thursday
148,25.303063451606169
596,-1.4816936725836159
597,49.9067596200643
2,2, 5, 4, 0, 7, 0.00,10.00,Thursday
148,25.321105329856655
596,-1.4834143942116276
597,50.0000356716111
2,2, 5, 4, 0, 7,10.00,20.00,Thursday
148,25.333817994835476
596,-1.4867769290246707
597,50.182372108341819
2,2, 5, 4, 0, 7,20.00,30.00,Thursday
148,25.29952043333253
596,-1.508860970836054
597,51.381695431863857
2,2, 5, 4, 0, 7,30.00,40.00,Thursday
148,25.279465599443584
596,-1.5242948401330659
597,52.22135108431204
2,2, 5, 4, 0, 7,40.00,50.00,Thursday
148,25.265917367614337
596,-1.5302243582084978
597,52.54417614344394
2,2, 5, 4, 0, 7,50.00,60.00,Thursday
148,25.260416310394058
596,-1.5347974553462083
597,52.79322351659968
2,2, 5, 4, 0, 8, 0.00,10.00,Thursday
148,25.258850536611676
596,-1.5393612590062403
597,53.04181639276643
2,2, 5, 4, 0, 8,10.00,20.00,Thursday
148,25.26911760828947
596,-1.5367913888495138
597,52.9018283541187
2,2, 5, 4, 0, 8,20.00,30.00,Thursday
148,25.283280499523927
596,-1.5310279681757364
597,52.587935977393978
2,2, 5, 4, 0, 8,30.00,40.00,Thursday
148,25.331858292314306
596,-1.5083076881395885
597,51.35161466703679
2,2, 5, 4, 0, 8,40.00,50.00,Thursday
148,25.41106760651999
596,-1.4709597902706642
597,49.325417713118628
2,2, 5, 4, 0, 8,50.00,60.00,Thursday
148,25.51278224805378
596,-1.4286121758813906
597,47.04240144514216
2,2, 5, 4, 0, 9, 0.00,10.00,Thursday
148,25.56135154655527
596,-1.4023054247403118
597,45.63471824612239
2,2, 5, 4, 0, 9,10.00,20.00,Thursday
148,25.613662010753115
596,-1.38812635634309
597,44.88002385599698
2,2, 5, 4, 0, 9,20.00,30.00,Thursday
148,25.708239589539259
596,-1.3349003251484484
597,42.07682020205045
2,2, 5, 4, 0, 9,30.00,40.00,Thursday
148,25.821672020414238
596,-1.283443846250715
597,39.41987240495224
2,2, 5, 4, 0, 9,40.00,50.00,Thursday
148,25.929546256533386
596,-1.2299014199609009
597,36.72136631774568
2,2, 5, 4, 0, 9,50.00,60.00,Thursday
148,25.990475233571009
596,-1.212105997213777
597,35.841166930172878
2,2, 5, 4, 0,10, 0.00,10.00,Thursday
148,28.150465668174158
596,0.4525797971999406
597,9.27453974456688
2,2, 5, 4, 0,10,10.00,20.00,Thursday
148,28.386805686962878
596,0.5492930257408231
597,11.316040950386395
2,2, 5, 4, 0,10,20.00,30.00,Thursday
148,28.68334230815428
596,0.6307218395135771
597,13.349059782916754
2,2, 5, 4, 0,10,30.00,40.00,Thursday
148,29.14230509840681
596,0.7578388106600519
597,17.096854996933958
2,2, 5, 4, 0,10,40.00,50.00,Thursday
148,29.313070250850705
596,0.8361694398581493
597,19.750982709632795
2,2, 5, 4, 0,10,50.00,60.00,Thursday
148,29.357771114578037
596,0.8872927108358407
597,21.621935749669008
2,2, 5, 4, 0,11, 0.00,10.00,Thursday
148,29.431261984396863
596,0.940433623982442
597,23.679931488949266
2,2, 5, 4, 0,11,10.00,20.00,Thursday
148,29.537984895427017
596,0.9986291204037441
597,26.061963631381248
2,2, 5, 4, 0,11,20.00,30.00,Thursday
148,29.61713611820349
596,1.035454751439675
597,27.63609038371662
2,2, 5, 4, 0,11,30.00,40.00,Thursday
148,29.756164404012578
596,1.0980450918883614
597,30.424605437700067
2,2, 5, 4, 0,11,40.00,50.00,Thursday
148,29.88442285568147
596,1.1524930033450785
597,32.95935943453131
2,2, 5, 4, 0,11,50.00,60.00,Thursday
148,29.982664634304386
596,1.2059143664201076
597,35.53698762658557
2,2, 5, 4, 0,12, 0.00,10.00,Thursday
148,30.15568741635804
596,1.2809708734300825
597,39.29367140361245
2,2, 5, 4, 0,12,10.00,20.00,Thursday
148,30.284252569287387
596,1.3329566469554096
597,41.97544355420462
2,2, 5, 4, 0,12,20.00,30.00,Thursday
148,30.409917734773729
596,1.392050562031939
597,45.0885902324421
2,2, 5, 4, 0,12,30.00,40.00,Thursday
148,30.599212385519814
596,1.469249598620211
597,49.232881140483929
2,2, 5, 4, 0,12,40.00,50.00,Thursday
148,30.65361046429185
596,1.500869193025511
597,50.947354279296778
2,2, 5, 4, 0,12,50.00,60.00,Thursday
148,30.695545185549347
596,1.523151456579961
597,52.15911445362557
2,2, 5, 4, 0,13, 0.00,10.00,Thursday
148,30.8560262411941
596,1.5963962471014375
597,56.14916584576579
2,2, 5, 4, 0,13,10.00,20.00,Thursday
148,31.03697580773491
596,1.6773498963581102
597,60.535640429270227
2,2, 5, 4, 0,13,20.00,30.00,Thursday
148,31.14524316383329
596,1.7223460431100358
597,62.944436905472247
2,2, 5, 4, 0,13,30.00,40.00,Thursday
148,31.26491505643328
596,1.7717558536489433
597,65.55182427410048
2,2, 5, 4, 0,13,40.00,50.00,Thursday
148,31.360853247302715
596,1.8152760470152774
597,67.8066257059912
2,2, 5, 4, 0,13,50.00,60.00,Thursday
148,31.502952655800589
596,1.8765060886542098
597,70.89703987343973
2,2, 5, 4, 0,14, 0.00,10.00,Thursday
148,31.58237023600816
596,1.9322221432221474
597,73.61013428463015
2,2, 5, 4, 0,14,10.00,20.00,Thursday
148,31.63958798514501
596,1.962494242690083
597,75.03924798887972
2,2, 5, 4, 0,14,20.00,30.00,Thursday
148,31.689741733616846
596,1.9888476234680193
597,76.25536667732205
2,2, 5, 4, 0,14,30.00,40.00,Thursday
148,31.74115371084242
596,2.0160359565821439
597,77.48121308446395
2,2, 5, 4, 0,14,40.00,50.00,Thursday
148,31.77813103442213
596,2.0368268411102177
597,78.39802951574892
2,2, 5, 4, 0,14,50.00,60.00,Thursday
148,31.941443473738905
596,2.1190790588079198
597,81.83893027833847
2,2, 5, 4, 0,15, 0.00,10.00,Thursday
148,32.104118045352787
596,2.184786531731345
597,84.36020965198419
2,2, 5, 4, 0,15,10.00,20.00,Thursday
148,32.13674159870734
596,2.2024781963383415
597,85.0028817049888
2,2, 5, 4, 0,15,20.00,30.00,Thursday
148,32.161620900031227
596,2.2180849710394225
597,85.55681656707843
2,2, 5, 4, 0,15,30.00,40.00,Thursday
148,32.1970706650462
596,2.246000738459395
597,86.5169633632023
2,2, 5, 4, 0,15,40.00,50.00,Thursday
148,32.23291963129018
596,2.2853663421575729
597,87.80345053636197
2,2, 5, 4, 0,15,50.00,60.00,Thursday
148,32.32668514969439
596,2.344574605523032
597,89.58875328746176
2,2, 5, 4, 0,16, 0.00,10.00,Thursday
148,32.46275997927407
596,2.405637335786381
597,91.2422772581979
2,2, 5, 4, 0,16,10.00,20.00,Thursday
148,32.597903785062687
596,2.466870660790167
597,92.71257462126209
2,2, 5, 4, 0,16,20.00,30.00,Thursday
148,32.728458236162669
596,2.52317047498881
597,93.9039611306395
2,2, 5, 4, 0,16,30.00,40.00,Thursday
148,32.77353345543283
596,2.550161940832674
597,94.42267336154173
2,2, 5, 4, 0,16,40.00,50.00,Thursday
148,32.7759636296644
596,2.5525455220229635
597,94.46689008779573
2,2, 5, 4, 0,16,50.00,60.00,Thursday
148,32.77494443477324
596,2.5578921770313998
597,94.56514618945143
2,2, 5, 4, 0,17, 0.00,10.00,Thursday
148,32.79780315901066
596,2.590528958963051
597,95.13752002778654
2,2, 5, 4, 0,17,10.00,20.00,Thursday
148,32.83627080338791
596,2.6197923510729308
597,95.61175729654448
2,2, 5, 4, 0,17,20.00,30.00,Thursday
148,32.81416077195018
596,2.6149307122715235
597,95.53546219228947
2,2, 5, 4, 0,17,30.00,40.00,Thursday
148,32.85879002352271
596,2.658437033988473
597,96.18398356080394
2,2, 5, 4, 0,17,40.00,50.00,Thursday
148,32.85517388473055
596,2.6576962095271008
597,96.17357403343141
2,2, 5, 4, 0,17,50.00,60.00,Thursday
148,32.83970551997899
596,2.6523247413483905
597,96.09745364963585
2,2, 5, 4, 0,18, 0.00,10.00,Thursday
148,32.80808298147789
596,2.640354060307341
597,95.923702348533
2,2, 5, 4, 0,18,10.00,20.00,Thursday
148,32.82777653928501
596,2.6518603551911386
597,96.09081935027283
2,2, 5, 4, 0,18,20.00,30.00,Thursday
148,32.87266065033069
596,2.674944706648281
597,96.41041336077295
2,2, 5, 4, 0,18,30.00,40.00,Thursday
148,32.94978626976612
596,2.7066977477419149
597,96.8169931684286
2,2, 5, 4, 0,18,40.00,50.00,Thursday
148,33.001730611863049
596,2.7247950352417589
597,97.03228670382092
2,2, 5, 4, 0,18,50.00,60.00,Thursday
148,32.96905043528728
596,2.703522762115455
597,96.7780121240061
2,2, 5, 4, 0,19, 0.00,10.00,Thursday
148,31.449418749217608
596,1.718524126679313
597,62.74097001084229
2,2, 5, 4, 0,19,10.00,20.00,Thursday
148,30.93728053841202
596,1.5380441114920689
597,52.9700658864397
2,2, 5, 4, 0,19,20.00,30.00,Thursday
148,30.705528443911726
596,1.4712516050813967
597,49.34120995773851
2,2, 5, 4, 0,19,30.00,40.00,Thursday
148,30.20068198250504
596,1.3100933017884855
597,40.78875485706547
2,2, 5, 4, 0,19,40.00,50.00,Thursday
148,30.048716563299089
596,1.245823943751081
597,37.51619783284954
2,2, 5, 4, 0,19,50.00,60.00,Thursday
148,29.994370499744329
596,1.1995314406263338
597,35.22455456947547
2,2, 5, 4, 0,20, 0.00,10.00,Thursday
148,29.92790999146344
596,1.161105576661118
597,33.369064486681768
2,2, 5, 4, 0,20,10.00,20.00,Thursday
148,29.844517151740534
596,1.116890319490996
597,31.2908580525567
2,2, 5, 4, 0,20,20.00,30.00,Thursday
148,29.760440062559625
596,1.0716051088622359
597,29.229741110677069
2,2, 5, 4, 0,20,30.00,40.00,Thursday
148,29.685619950302756
596,1.0309098887987196
597,27.439090628256439
2,2, 5, 4, 0,20,40.00,50.00,Thursday
148,29.61777150399317
596,0.9928599162139153
597,25.819979245043599
2,2, 5, 4, 0,20,50.00,60.00,Thursday
148,29.564342725427296
596,0.9631434050155856
597,24.593794449149017
2,2, 5, 4, 0,21, 0.00,10.00,Thursday
148,29.514851814143048
596,0.931593687086059
597,23.32971901057627
2,2, 5, 4, 0,21,10.00,20.00,Thursday
148,29.469363769758595
596,0.9038096616641704
597,22.249373027341023
2,2, 5, 4, 0,21,20.00,30.00,Thursday
148,29.418169593455365
596,0.8714063928262611
597,21.028979692137385
2,2, 5, 4, 0,21,30.00,40.00,Thursday
148,29.375293313992075
596,0.8471607451970049
597,20.144084800100246
2,2, 5, 4, 0,21,40.00,50.00,Thursday
148,29.336027229520118
596,0.8198304290380205
597,19.175962449800467
2,2, 5, 4, 0,21,50.00,60.00,Thursday
148,29.280497287586699
596,0.7826241399061495
597,17.908538357985095
2,2, 5, 4, 0,22, 0.00,10.00,Thursday
148,29.22963590927523
596,0.7508373251158205
597,16.87231902999899
2,2, 5, 4, 0,22,10.00,20.00,Thursday
148,29.16991520648024
596,0.7223887915116597
597,15.981605296486478
2,2, 5, 4, 0,22,20.00,30.00,Thursday
148,29.08289175886788
596,0.6732564457549547
597,14.52538399209476
2,2, 5, 4, 0,22,30.00,40.00,Thursday
148,29.033596573477028
596,0.6527220735470661
597,13.94770113218317
2,2, 5, 4, 0,22,40.00,50.00,Thursday
148,29.004418863037178
596,0.6265019823711595
597,13.236634214392325
2,2, 5, 4, 0,22,50.00,60.00,Thursday
148,28.9647847550861