Program Version,EnergyPlus, Version 9.5.0-de239b2e5f, YMD=2021.12.08 17:49
1,5,Environment Title[],Latitude[deg],Longitude[deg],Time Zone[],Elevation[m]
2,8,Day of Simulation[],Month[],Day of Month[],DST Indicator[1=yes 0=no],Hour[],StartMinute[],EndMinute[],DayType
3,5,Cumulative Day of Simulation[],Month[],Day of Month[],DST Indicator[1=yes 0=no],DayType  ! When Daily Report Variables Requested
4,2,Cumulative Days of Simulation[],Month[]  ! When Monthly Report Variables Requested
5,1,Cumulative Days of Simulation[] ! When Run Period Report Variables Requested
6,1,Calendar Year of Simulation[] ! When Annual Report Variables Requested
148,1,THERMAL ZONE: JORGE,Zone Mean Air Temperature [C] !TimeStep
End of Data Dictionary
1,RUN PERIOD 1,  18.85, -99.14,  -6.00,1280.00
2,1, 5, 3, 0, 1, 0.00,10.00,Wednesday
148,27.214338142543914
2,1, 5, 3, 0, 1,10.00,20.00,Wednesday
148,27.03883213452191
2,1, 5, 3, 0, 1,20.00,30.00,Wednesday
148,26.93048472225589
2,1, 5, 3, 0, 1,30.00,40.00,Wednesday
148,26.86643732038141
2,1, 5, 3, 0, 1,40.00,50.00,Wednesday
148,26.814348994351258
2,1, 5, 3, 0, 1,50.00,60.00,Wednesday
148,26.75150835167179
2,1, 5, 3, 0, 2, 0.00,10.00,Wednesday
148,26.68212631118618
2,1, 5, 3, 0, 2,10.00,20.00,Wednesday
148,26.639356373340939
2,1, 5, 3, 0, 2,20.00,30.00,Wednesday
148,26.54292033384913
2,1, 5, 3, 0, 2,30.00,40.00,Wednesday
148,26.506166124590217
2,1, 5, 3, 0, 2,40.00,50.00,Wednesday
148,26.46447934932448
2,1, 5, 3, 0, 2,50.00,60.00,Wednesday
148,26.42253672839599
2,1, 5, 3, 0, 3, 0.00,10.00,Wednesday
148,26.376295346102375
2,1, 5, 3, 0, 3,10.00,20.00,Wednesday
148,26.34091338505176
2,1, 5, 3, 0, 3,20.00,30.00,Wednesday
148,26.287019082369068
2,1, 5, 3, 0, 3,30.00,40.00,Wednesday
148,26.21672655588799
2,1, 5, 3, 0, 3,40.00,50.00,Wednesday
148,26.16038063530905
2,1, 5, 3, 0, 3,50.00,60.00,Wednesday
148,26.10665118160676
2,1, 5, 3, 0, 4, 0.00,10.00,Wednesday
148,26.053299175362409
2,1, 5, 3, 0, 4,10.00,20.00,Wednesday
148,26.007363087263707
2,1, 5, 3, 0, 4,20.00,30.00,Wednesday
148,25.973529516803603
2,1, 5, 3, 0, 4,30.00,40.00,Wednesday
148,25.88038262027307
2,1, 5, 3, 0, 4,40.00,50.00,Wednesday
148,25.773721854839637
2,1, 5, 3, 0, 4,50.00,60.00,Wednesday
148,25.694065162886337
2,1, 5, 3, 0, 5, 0.00,10.00,Wednesday
148,25.65947639842951
2,1, 5, 3, 0, 5,10.00,20.00,Wednesday
148,25.628610057208279
2,1, 5, 3, 0, 5,20.00,30.00,Wednesday
148,25.591725169051469
2,1, 5, 3, 0, 5,30.00,40.00,Wednesday
148,25.54722506519804
2,1, 5, 3, 0, 5,40.00,50.00,Wednesday
148,25.533936382354296
2,1, 5, 3, 0, 5,50.00,60.00,Wednesday
148,25.470429380254818
2,1, 5, 3, 0, 6, 0.00,10.00,Wednesday
148,25.407385149696098
2,1, 5, 3, 0, 6,10.00,20.00,Wednesday
148,25.281755508116285
2,1, 5, 3, 0, 6,20.00,30.00,Wednesday
148,25.18918865446073
2,1, 5, 3, 0, 6,30.00,40.00,Wednesday
148,25.087208496847567
2,1, 5, 3, 0, 6,40.00,50.00,Wednesday
148,25.003992866610763
2,1, 5, 3, 0, 6,50.00,60.00,Wednesday
148,24.938082496891693
2,1, 5, 3, 0, 7, 0.00,10.00,Wednesday
148,24.901773664636097
2,1, 5, 3, 0, 7,10.00,20.00,Wednesday
148,24.898658593864299
2,1, 5, 3, 0, 7,20.00,30.00,Wednesday
148,24.87936729544097
2,1, 5, 3, 0, 7,30.00,40.00,Wednesday
148,24.80741004773981
2,1, 5, 3, 0, 7,40.00,50.00,Wednesday
148,24.745908401390069
2,1, 5, 3, 0, 7,50.00,60.00,Wednesday
148,24.784994725934234
2,1, 5, 3, 0, 8, 0.00,10.00,Wednesday
148,24.81746608902825
2,1, 5, 3, 0, 8,10.00,20.00,Wednesday
148,24.79872735174812
2,1, 5, 3, 0, 8,20.00,30.00,Wednesday
148,24.835075599462468
2,1, 5, 3, 0, 8,30.00,40.00,Wednesday
148,24.885629633427997
2,1, 5, 3, 0, 8,40.00,50.00,Wednesday
148,24.98379319325353
2,1, 5, 3, 0, 8,50.00,60.00,Wednesday
148,25.121473028752335
2,1, 5, 3, 0, 9, 0.00,10.00,Wednesday
148,25.228432972041654
2,1, 5, 3, 0, 9,10.00,20.00,Wednesday
148,25.347102900495864
2,1, 5, 3, 0, 9,20.00,30.00,Wednesday
148,25.446138852745539
2,1, 5, 3, 0, 9,30.00,40.00,Wednesday
148,25.520306066692159
2,1, 5, 3, 0, 9,40.00,50.00,Wednesday
148,25.595708256614715
2,1, 5, 3, 0, 9,50.00,60.00,Wednesday
148,25.677054444923117
2,1, 5, 3, 0,10, 0.00,10.00,Wednesday
148,27.937570461921049
2,1, 5, 3, 0,10,10.00,20.00,Wednesday
148,28.264610295091666
2,1, 5, 3, 0,10,20.00,30.00,Wednesday
148,28.564278096287745
2,1, 5, 3, 0,10,30.00,40.00,Wednesday
148,29.079059466001384
2,1, 5, 3, 0,10,40.00,50.00,Wednesday
148,29.269102883504197
2,1, 5, 3, 0,10,50.00,60.00,Wednesday
148,29.266422432345107
2,1, 5, 3, 0,11, 0.00,10.00,Wednesday
148,29.303035370693875
2,1, 5, 3, 0,11,10.00,20.00,Wednesday
148,29.44489042601718
2,1, 5, 3, 0,11,20.00,30.00,Wednesday
148,29.587785932549733
2,1, 5, 3, 0,11,30.00,40.00,Wednesday
148,29.70445291160087
2,1, 5, 3, 0,11,40.00,50.00,Wednesday
148,29.806259845953158
2,1, 5, 3, 0,11,50.00,60.00,Wednesday
148,29.88795941241205
2,1, 5, 3, 0,12, 0.00,10.00,Wednesday
148,30.050073134774313
2,1, 5, 3, 0,12,10.00,20.00,Wednesday
148,30.13516341170429
2,1, 5, 3, 0,12,20.00,30.00,Wednesday
148,30.33796251156521
2,1, 5, 3, 0,12,30.00,40.00,Wednesday
148,30.43551926588915
2,1, 5, 3, 0,12,40.00,50.00,Wednesday
148,30.591845224251157
2,1, 5, 3, 0,12,50.00,60.00,Wednesday
148,30.735436523954456
2,1, 5, 3, 0,13, 0.00,10.00,Wednesday
148,30.894920092807959
2,1, 5, 3, 0,13,10.00,20.00,Wednesday
148,31.024277273504266
2,1, 5, 3, 0,13,20.00,30.00,Wednesday
148,31.130635618042719
2,1, 5, 3, 0,13,30.00,40.00,Wednesday
148,31.230844572438504
2,1, 5, 3, 0,13,40.00,50.00,Wednesday
148,31.345230855610504
2,1, 5, 3, 0,13,50.00,60.00,Wednesday
148,31.391894195967909
2,1, 5, 3, 0,14, 0.00,10.00,Wednesday
148,31.382909570860197
2,1, 5, 3, 0,14,10.00,20.00,Wednesday
148,31.50096138958431
2,1, 5, 3, 0,14,20.00,30.00,Wednesday
148,31.65888281881841
2,1, 5, 3, 0,14,30.00,40.00,Wednesday
148,31.770153374681639
2,1, 5, 3, 0,14,40.00,50.00,Wednesday
148,31.883826502382744
2,1, 5, 3, 0,14,50.00,60.00,Wednesday
148,32.08538821227644
2,1, 5, 3, 0,15, 0.00,10.00,Wednesday
148,31.87280961699982
2,1, 5, 3, 0,15,10.00,20.00,Wednesday
148,31.849195135488356
2,1, 5, 3, 0,15,20.00,30.00,Wednesday
148,32.00256067697746
2,1, 5, 3, 0,15,30.00,40.00,Wednesday
148,32.13594190779121
2,1, 5, 3, 0,15,40.00,50.00,Wednesday
148,32.21952568897991
2,1, 5, 3, 0,15,50.00,60.00,Wednesday
148,32.327111343198207
2,1, 5, 3, 0,16, 0.00,10.00,Wednesday
148,32.44352427118805
2,1, 5, 3, 0,16,10.00,20.00,Wednesday
148,32.54291575070127
2,1, 5, 3, 0,16,20.00,30.00,Wednesday
148,32.57787301620192
2,1, 5, 3, 0,16,30.00,40.00,Wednesday
148,32.74081295866115
2,1, 5, 3, 0,16,40.00,50.00,Wednesday
148,32.856498388615317
2,1, 5, 3, 0,16,50.00,60.00,Wednesday
148,32.74761670602257
2,1, 5, 3, 0,17, 0.00,10.00,Wednesday
148,32.595717521830128
2,1, 5, 3, 0,17,10.00,20.00,Wednesday
148,32.48448903203516
2,1, 5, 3, 0,17,20.00,30.00,Wednesday
148,32.38230388706327
2,1, 5, 3, 0,17,30.00,40.00,Wednesday
148,32.24621388263077
2,1, 5, 3, 0,17,40.00,50.00,Wednesday
148,32.176744051159548
2,1, 5, 3, 0,17,50.00,60.00,Wednesday
148,32.25083918628633
2,1, 5, 3, 0,18, 0.00,10.00,Wednesday
148,32.249185552685727
2,1, 5, 3, 0,18,10.00,20.00,Wednesday
148,32.199582069687398
2,1, 5, 3, 0,18,20.00,30.00,Wednesday
148,32.177294117878208
2,1, 5, 3, 0,18,30.00,40.00,Wednesday
148,32.18778554590629
2,1, 5, 3, 0,18,40.00,50.00,Wednesday
148,32.230411840973037
2,1, 5, 3, 0,18,50.00,60.00,Wednesday
148,32.26493352584699
2,1, 5, 3, 0,19, 0.00,10.00,Wednesday
148,30.764109844374557
2,1, 5, 3, 0,19,10.00,20.00,Wednesday
148,30.26873679502956
2,1, 5, 3, 0,19,20.00,30.00,Wednesday
148,29.99167831495415
2,1, 5, 3, 0,19,30.00,40.00,Wednesday
148,29.4578868831723
2,1, 5, 3, 0,19,40.00,50.00,Wednesday
148,29.20402216986988
2,1, 5, 3, 0,19,50.00,60.00,Wednesday
148,29.149962554784154
2,1, 5, 3, 0,20, 0.00,10.00,Wednesday
148,29.12820388341991
2,1, 5, 3, 0,20,10.00,20.00,Wednesday
148,29.06758009183635
2,1, 5, 3, 0,20,20.00,30.00,Wednesday
148,28.996687241758698
2,1, 5, 3, 0,20,30.00,40.00,Wednesday
148,28.9084476631318
2,1, 5, 3, 0,20,40.00,50.00,Wednesday
148,28.80773548337443
2,1, 5, 3, 0,20,50.00,60.00,Wednesday
148,28.71746557898364
2,1, 5, 3, 0,21, 0.00,10.00,Wednesday
148,28.664465760411603
2,1, 5, 3, 0,21,10.00,20.00,Wednesday
148,28.60539059767282
2,1, 5, 3, 0,21,20.00,30.00,Wednesday
148,28.523672569454648
2,1, 5, 3, 0,21,30.00,40.00,Wednesday
148,28.44954820015446
2,1, 5, 3, 0,21,40.00,50.00,Wednesday
148,28.402253803549333
2,1, 5, 3, 0,21,50.00,60.00,Wednesday
148,28.32464707103869
2,1, 5, 3, 0,22, 0.00,10.00,Wednesday
148,28.268392846316556
2,1, 5, 3, 0,22,10.00,20.00,Wednesday
148,28.211866513371477
2,1, 5, 3, 0,22,20.00,30.00,Wednesday
148,28.134275444974727
2,1, 5, 3, 0,22,30.00,40.00,Wednesday
148,28.04380972813874
2,1, 5, 3, 0,22,40.00,50.00,Wednesday
148,27.978190589935
2,1, 5, 3, 0,22,50.00,60.00,Wednesday
148,27.915839625721604
2,1, 5, 3, 0,23, 0.00,10.00,Wednesday
148,27.892390719375994
2,1, 5, 3, 0,23,10.00,20.00,Wednesday
148,27.860850676115445
2,1, 5, 3, 0,23,20.00,30.00,Wednesday
148,27.81091249597504
2,1, 5, 3, 0,23,30.00,40.00,Wednesday
148,27.757056649655217
2,1, 5, 3, 0,23,40.00,50.00,Wednesday
148,27.683415897024998
2,1, 5, 3, 0,23,50.00,60.00,Wednesday
148,27.657598824243249
2,1, 5, 3, 0,24, 0.00,10.00,Wednesday
148,27.623312368032776
2,1, 5, 3, 0,24,10.00,20.00,Wednesday
148,27.57072089729382
2,1, 5, 3, 0,24,20.00,30.00,Wednesday
148,27.51611631043738
2,1, 5, 3, 0,24,30.00,40.00,Wednesday
148,27.473567775353677
2,1, 5, 3, 0,24,40.00,50.00,Wednesday
148,27.43219051322117
2,1, 5, 3, 0,24,50.00,60.00,Wednesday
148,27.39773704423148
2,2, 5, 4, 0, 1, 0.00,10.00,Thursday
148,27.3735103473337
2,2, 5, 4, 0, 1,10.00,20.00,Thursday
148,27.29612463754641
2,2, 5, 4, 0, 1,20.00,30.00,Thursday
148,27.215212831410147
2,2, 5, 4, 0, 1,30.00,40.00,Thursday
148,27.13574102589922
2,2, 5, 4, 0, 1,40.00,50.00,Thursday
148,27.08353725641968
2,2, 5, 4, 0, 1,50.00,60.00,Thursday
148,27.050031267968124
2,2, 5, 4, 0, 2, 0.00,10.00,Thursday
148,27.019214350592759
2,2, 5, 4, 0, 2,10.00,20.00,Thursday
148,26.9809100632361
2,2, 5, 4, 0, 2,20.00,30.00,Thursday
148,26.946120338046048
2,2, 5, 4, 0, 2,30.00,40.00,Thursday
148,26.90869160446544
2,2, 5, 4, 0, 2,40.00,50.00,Thursday
148,26.87125230437557
2,2, 5, 4, 0, 2,50.00,60.00,Thursday
148,26.831358215457429
2,2, 5, 4, 0, 3, 0.00,10.00,Thursday
148,26.78255829825544
2,2, 5, 4, 0, 3,10.00,20.00,Thursday
148,26.712489291910015
2,2, 5, 4, 0, 3,20.00,30.00,Thursday
148,26.669455811251866
2,2, 5, 4, 0, 3,30.00,40.00,Thursday
148,26.594765145232608
2,2, 5, 4, 0, 3,40.00,50.00,Thursday
148,26.513944774036799
2,2, 5, 4, 0, 3,50.00,60.00,Thursday
148,26.470644452446665
2,2, 5, 4, 0, 4, 0.00,10.00,Thursday
148,26.386416726668107
2,2, 5, 4, 0, 4,10.00,20.00,Thursday
148,26.27806094118895
2,2, 5, 4, 0, 4,20.00,30.00,Thursday
148,26.231311995663768
2,2, 5, 4, 0, 4,30.00,40.00,Thursday
148,26.15537161152993
2,2, 5, 4, 0, 4,40.00,50.00,Thursday
148,26.07451133150661
2,2, 5, 4, 0, 4,50.00,60.00,Thursday
148,26.061849087669125
2,2, 5, 4, 0, 5, 0.00,10.00,Thursday
148,25.980608183702949
2,2, 5, 4, 0, 5,10.00,20.00,Thursday
148,25.89276794020251
2,2, 5, 4, 0, 5,20.00,30.00,Thursday
148,25.845318390325617
2,2, 5, 4, 0, 5,30.00,40.00,Thursday
148,25.825067660637666
2,2, 5, 4, 0, 5,40.00,50.00,Thursday
148,25.791983317449366
2,2, 5, 4, 0, 5,50.00,60.00,Thursday
148,25.726720173844084
2,2, 5, 4, 0, 6, 0.00,10.00,Thursday
148,25.671634334128397
2,2, 5, 4, 0, 6,10.00,20.00,Thursday
148,25.5839230098795
2,2, 5, 4, 0, 6,20.00,30.00,Thursday
148,25.542723539694383
2,2, 5, 4, 0, 6,30.00,40.00,Thursday
148,25.452041628820994
2,2, 5, 4, 0, 6,40.00,50.00,Thursday
148,25.347868929117089
2,2, 5, 4, 0, 6,50.00,60.00,Thursday
148,25.29960936591297
2,2, 5, 4, 0, 7, 0.00,10.00,Thursday
148,25.31765344631127
2,2, 5, 4, 0, 7,10.00,20.00,Thursday
148,25.330397944568316
2,2, 5, 4, 0, 7,20.00,30.00,Thursday
148,25.296165828836036
2,2, 5, 4, 0, 7,30.00,40.00,Thursday
148,25.276145864808677
2,2, 5, 4, 0, 7,40.00,50.00,Thursday
148,25.262647414482925
2,2, 5, 4, 0, 7,50.00,60.00,Thursday
148,25.25720271940307
2,2, 5, 4, 0, 8, 0.00,10.00,Thursday
148,25.2556914580566
2,2, 5, 4, 0, 8,10.00,20.00,Thursday
148,25.26601351474641
2,2, 5, 4, 0, 8,20.00,30.00,Thursday
148,25.280657878959496
2,2, 5, 4, 0, 8,30.00,40.00,Thursday
148,25.31969147639182
2,2, 5, 4, 0, 8,40.00,50.00,Thursday
148,25.39889482852638
2,2, 5, 4, 0, 8,50.00,60.00,Thursday
148,25.50583559826494
2,2, 5, 4, 0, 9, 0.00,10.00,Thursday
148,25.555759813494054
2,2, 5, 4, 0, 9,10.00,20.00,Thursday
148,25.609112901972883
2,2, 5, 4, 0, 9,20.00,30.00,Thursday
148,25.70469643675316
2,2, 5, 4, 0, 9,30.00,40.00,Thursday
148,25.818696312548
2,2, 5, 4, 0, 9,40.00,50.00,Thursday
148,25.926715165874627
2,2, 5, 4, 0, 9,50.00,60.00,Thursday
148,25.987649359880775
2,2, 5, 4, 0,10, 0.00,10.00,Thursday
148,28.15049271383328
2,2, 5, 4, 0,10,10.00,20.00,Thursday
148,28.384307820156957
2,2, 5, 4, 0,10,20.00,30.00,Thursday
148,28.68080737889651
2,2, 5, 4, 0,10,30.00,40.00,Thursday
148,29.13951701170085
2,2, 5, 4, 0,10,40.00,50.00,Thursday
148,29.310213967894748
2,2, 5, 4, 0,10,50.00,60.00,Thursday
148,29.354976872766256
2,2, 5, 4, 0,11, 0.00,10.00,Thursday
148,29.428548373406117
2,2, 5, 4, 0,11,10.00,20.00,Thursday
148,29.535323141264724
2,2, 5, 4, 0,11,20.00,30.00,Thursday
148,29.61448657459669
2,2, 5, 4, 0,11,30.00,40.00,Thursday
148,29.753548919337825
2,2, 5, 4, 0,11,40.00,50.00,Thursday
148,29.881859347353367
2,2, 5, 4, 0,11,50.00,60.00,Thursday
148,29.980124968711693
2,2, 5, 4, 0,12, 0.00,10.00,Thursday
148,30.153185048688255
2,2, 5, 4, 0,12,10.00,20.00,Thursday
148,30.281781058057307
2,2, 5, 4, 0,12,20.00,30.00,Thursday
148,30.407471407869396
2,2, 5, 4, 0,12,30.00,40.00,Thursday
148,30.596825448412397
2,2, 5, 4, 0,12,40.00,50.00,Thursday
148,30.65124154614067
2,2, 5, 4, 0,12,50.00,60.00,Thursday
148,30.693201884686645
2,2, 5, 4, 0,13, 0.00,10.00,Thursday
148,30.85373226991313
2,2, 5, 4, 0,13,10.00,20.00,Thursday
148,31.034700992114059
2,2, 5, 4, 0,13,20.00,30.00,Thursday
148,31.14300813615983
2,2, 5, 4, 0,13,30.00,40.00,Thursday
148,31.26271196118092
2,2, 5, 4, 0,13,40.00,50.00,Thursday
148,31.358680994176575
2,2, 5, 4, 0,13,50.00,60.00,Thursday
148,31.50081779792865
2,2, 5, 4, 0,14, 0.00,10.00,Thursday
148,31.580275229084618
2,2, 5, 4, 0,14,10.00,20.00,Thursday
148,31.637524147945148
2,2, 5, 4, 0,14,20.00,30.00,Thursday
148,31.68771150163236
2,2, 5, 4, 0,14,30.00,40.00,Thursday
148,31.739156047424314
2,2, 5, 4, 0,14,40.00,50.00,Thursday
148,31.776167068355848
2,2, 5, 4, 0,14,50.00,60.00,Thursday
148,31.939496741575618
2,2, 5, 4, 0,15, 0.00,10.00,Thursday
148,31.96405296892887
2,2, 5, 4, 0,15,10.00,20.00,Thursday
148,31.951868494045017
2,2, 5, 4, 0,15,20.00,30.00,Thursday
148,31.96605403229575
2,2, 5, 4, 0,15,30.00,40.00,Thursday
148,31.970973940498454
2,2, 5, 4, 0,15,40.00,50.00,Thursday
148,31.999883126297634
2,2, 5, 4, 0,15,50.00,60.00,Thursday
148,32.094099036781958
2,2, 5, 4, 0,16, 0.00,10.00,Thursday
148,32.22898107557775
2,2, 5, 4, 0,16,10.00,20.00,Thursday
148,32.36662579037222
2,2, 5, 4, 0,16,20.00,30.00,Thursday
148,32.50667544709366
2,2, 5, 4, 0,16,30.00,40.00,Thursday
148,32.68324296139984
2,2, 5, 4, 0,16,40.00,50.00,Thursday
148,32.711553702644099
2,2, 5, 4, 0,16,50.00,60.00,Thursday
148,32.72584284725868
2,2, 5, 4, 0,17, 0.00,10.00,Thursday
148,32.76509177759489
2,2, 5, 4, 0,17,10.00,20.00,Thursday
148,32.81356924040301
2,2, 5, 4, 0,17,20.00,30.00,Thursday
148,32.792336417778368
2,2, 5, 4, 0,17,30.00,40.00,Thursday
148,32.84096257136132
2,2, 5, 4, 0,17,40.00,50.00,Thursday
148,32.83774965047805
2,2, 5, 4, 0,17,50.00,60.00,Thursday
148,32.82324069180312
2,2, 5, 4, 0,18, 0.00,10.00,Thursday
148,32.792299899841598
2,2, 5, 4, 0,18,10.00,20.00,Thursday
148,32.812616605455989
2,2, 5, 4, 0,18,20.00,30.00,Thursday
148,32.85810743298239
2,2, 5, 4, 0,18,30.00,40.00,Thursday
148,32.93602388504812
2,2, 5, 4, 0,18,40.00,50.00,Thursday
148,32.988433533879298
2,2, 5, 4, 0,18,50.00,60.00,Thursday
148,32.956123754092597
2,2, 5, 4, 0,19, 0.00,10.00,Thursday
148,31.435987195135629
2,2, 5, 4, 0,19,10.00,20.00,Thursday
148,30.924271858539325
2,2, 5, 4, 0,19,20.00,30.00,Thursday
148,30.69283037417592
2,2, 5, 4, 0,19,30.00,40.00,Thursday
148,30.18842290377588
2,2, 5, 4, 0,19,40.00,50.00,Thursday
148,30.036914284109828
2,2, 5, 4, 0,19,50.00,60.00,Thursday
148,29.982872293043429
2,2, 5, 4, 0,20, 0.00,10.00,Thursday
148,29.9167766739718
2,2, 5, 4, 0,20,10.00,20.00,Thursday
148,29.83373263465428
2,2, 5, 4, 0,20,20.00,30.00,Thursday
148,29.749983097323076
2,2, 5, 4, 0,20,30.00,40.00,Thursday
148,29.675474270316625
2,2, 5, 4, 0,20,40.00,50.00,Thursday
148,29.607916683155417
2,2, 5, 4, 0,20,50.00,60.00,Thursday
148,29.554745548974858
2,2, 5, 4, 0,21, 0.00,10.00,Thursday
148,29.505496368713297
2,2, 5, 4, 0,21,10.00,20.00,Thursday
148,29.4602295422658
2,2, 5, 4, 0,21,20.00,30.00,Thursday
148,29.40923926572506
2,2, 5, 4, 0,21,30.00,40.00,Thursday
148,29.36657162366298
2,2, 5, 4, 0,21,40.00,50.00,Thursday
148,29.32751321699284
2,2, 5, 4, 0,21,50.00,60.00,Thursday
148,29.272196642977009
2,2, 5, 4, 0,22, 0.00,10.00,Thursday
148,29.22148475650254
2,2, 5, 4, 0,22,10.00,20.00,Thursday
148,29.16207169316509
2,2, 5, 4, 0,22,20.00,30.00,Thursday
148,29.075474617084717
2,2, 5, 4, 0,22,30.00,40.00,Thursday
148,29.026263005721554
2,2, 5, 4, 0,22,40.00,50.00,Thursday
148,28.997065671674116
2,2, 5, 4, 0,22,50.00,60.00,Thursday
148,28.957470320439538
2,2, 5, 4, 0,23, 0.00,10.00,Thursday
148,28.904335980224759
2,2, 5, 4, 0,23,10.00,20.00,Thursday
148,28.833993389081784
2,2, 5, 4, 0,23,20.00,30.00,Thursday
148,28.758202474288927
2,2, 5, 4, 0,23,30.00,40.00,Thursday
148,28.708598661824817
2,2, 5, 4, 0,23,40.00,50.00,Thursday
148,28.630719784654173
2,2, 5, 4, 0,23,50.00,60.00,Thursday
148,28.565152983889484
2,2, 5, 4, 0,24, 0.00,10.00,Thursday
148,28.53052054613975
2,2, 5, 4, 0,24,10.00,20.00,Thursday
148,28.500359595498645
2,2, 5, 4, 0,24,20.00,30.00,Thursday
148,28.460808681498997
2,2, 5, 4, 0,24,30.00,40.00,Thursday
148,28.411369828391828
2,2, 5, 4, 0,24,40.00,50.00,Thursday
148,28.35155689690221
2,2, 5, 4, 0,24,50.00,60.00,Thursday
148,28.274838316082048
2,3, 5, 5, 0, 1, 0.00,10.00,Friday
148,28.187844133456829
2,3, 5, 5, 0, 1,10.00,20.00,Friday
148,28.166585566487453
2,3, 5, 5, 0, 1,20.00,30.00,Friday
148,28.102001376300924
2,3, 5, 5, 0, 1,30.00,40.00,Friday
148,28.053368477814865
2,3, 5, 5, 0, 1,40.00,50.00,Friday
148,28.017353763865488
2,3, 5, 5, 0, 1,50.00,60.00,Friday
148,27.967229049396506
2,3, 5, 5, 0, 2, 0.00,10.00,Friday
148,27.900823174567809
2,3, 5, 5, 0, 2,10.00,20.00,Friday
148,27.81956617726825
2,3, 5, 5, 0, 2,20.00,30.00,Friday
148,27.730299713953447
2,3, 5, 5, 0, 2,30.00,40.00,Friday
148,27.637370885922878
2,3, 5, 5, 0, 2,40.00,50.00,Friday
148,27.50983485143143
2,3, 5, 5, 0, 2,50.00,60.00,Friday
148,27.43393074281153
2,3, 5, 5, 0, 3, 0.00,10.00,Friday
148,27.370218202673855
2,3, 5, 5, 0, 3,10.00,20.00,Friday
148,27.29146162981721
2,3, 5, 5, 0, 3,20.00,30.00,Friday
148,27.2034591948374
2,3, 5, 5, 0, 3,30.00,40.00,Friday
148,27.131358680709395
2,3, 5, 5, 0, 3,40.00,50.00,Friday
148,27.071004718868154
2,3, 5, 5, 0, 3,50.00,60.00,Friday
148,26.97296991840004
2,3, 5, 5, 0, 4, 0.00,10.00,Friday
148,26.923873111597275
2,3, 5, 5, 0, 4,10.00,20.00,Friday
148,26.8642267087776
2,3, 5, 5, 0, 4,20.00,30.00,Friday
148,26.807896113610153
2,3, 5, 5, 0, 4,30.00,40.00,Friday
148,26.755326717249504
2,3, 5, 5, 0, 4,40.00,50.00,Friday
148,26.703001128414145
2,3, 5, 5, 0, 4,50.00,60.00,Friday
148,26.663696502057879
2,3, 5, 5, 0, 5, 0.00,10.00,Friday
148,26.64777627959704
2,3, 5, 5, 0, 5,10.00,20.00,Friday
148,26.642477833307127
2,3, 5, 5, 0, 5,20.00,30.00,Friday
148,26.5724013010269
2,3, 5, 5, 0, 5,30.00,40.00,Friday
148,26.48841386080511
2,3, 5, 5, 0, 5,40.00,50.00,Friday
148,26.43090817379852
2,3, 5, 5, 0, 5,50.00,60.00,Friday
148,26.384095350793435
2,3, 5, 5, 0, 6, 0.00,10.00,Friday
148,26.319055370653446
2,3, 5, 5, 0, 6,10.00,20.00,Friday
148,26.28629279416353
2,3, 5, 5, 0, 6,20.00,30.00,Friday
148,26.252508283574504
2,3, 5, 5, 0, 6,30.00,40.00,Friday
148,26.197218019279853
2,3, 5, 5, 0, 6,40.00,50.00,Friday
148,26.126982287609768
2,3, 5, 5, 0, 6,50.00,60.00,Friday
148,26.052507339289837
2,3, 5, 5, 0, 7, 0.00,10.00,Friday
148,25.980600518284658
2,3, 5, 5, 0, 7,10.00,20.00,Friday
148,25.911184028396105
2,3, 5, 5, 0, 7,20.00,30.00,Friday
148,25.844588468762959
2,3, 5, 5, 0, 7,30.00,40.00,Friday
148,25.813369079049417
2,3, 5, 5, 0, 7,40.00,50.00,Friday
148,25.806347174417984
2,3, 5, 5, 0, 7,50.00,60.00,Friday
148,25.81082989333031
2,3, 5, 5, 0, 8, 0.00,10.00,Friday
148,25.769932697631356
2,3, 5, 5, 0, 8,10.00,20.00,Friday
148,25.731376979065325
2,3, 5, 5, 0, 8,20.00,30.00,Friday
148,25.75043182526463
2,3, 5, 5, 0, 8,30.00,40.00,Friday
148,25.830106053563936
2,3, 5, 5, 0, 8,40.00,50.00,Friday
148,25.966729707539426
2,3, 5, 5, 0, 8,50.00,60.00,Friday
148,26.077433522967774
2,3, 5, 5, 0, 9, 0.00,10.00,Friday
148,26.137409809579358
2,3, 5, 5, 0, 9,10.00,20.00,Friday
148,26.292697352414295
2,3, 5, 5, 0, 9,20.00,30.00,Friday
148,26.42699894882833
2,3, 5, 5, 0, 9,30.00,40.00,Friday
148,26.528096320003045
2,3, 5, 5, 0, 9,40.00,50.00,Friday
148,26.599755604888779
2,3, 5, 5, 0, 9,50.00,60.00,Friday
148,26.65212662124472
2,3, 5, 5, 0,10, 0.00,10.00,Friday
148,28.918149650965888
2,3, 5, 5, 0,10,10.00,20.00,Friday
148,29.233072438387525
2,3, 5, 5, 0,10,20.00,30.00,Friday
148,29.558281534683393
2,3, 5, 5, 0,10,30.00,40.00,Friday
148,30.078235618047335
2,3, 5, 5, 0,10,40.00,50.00,Friday
148,30.261167184001978
2,3, 5, 5, 0,10,50.00,60.00,Friday
148,30.2471213974876
2,3, 5, 5, 0,11, 0.00,10.00,Friday
148,30.253441703576788
2,3, 5, 5, 0,11,10.00,20.00,Friday
148,30.398437719574877
2,3, 5, 5, 0,11,20.00,30.00,Friday
148,30.545698416412607
2,3, 5, 5, 0,11,30.00,40.00,Friday
148,30.625715373526917
2,3, 5, 5, 0,11,40.00,50.00,Friday
148,30.807191043110217
2,3, 5, 5, 0,11,50.00,60.00,Friday
148,30.91753391252432
2,3, 5, 5, 0,12, 0.00,10.00,Friday
148,30.990721589255814
2,3, 5, 5, 0,12,10.00,20.00,Friday
148,31.07355017406104
2,3, 5, 5, 0,12,20.00,30.00,Friday
148,31.1815323097529
2,3, 5, 5, 0,12,30.00,40.00,Friday
148,31.32920446935911
2,3, 5, 5, 0,12,40.00,50.00,Friday
148,31.451699670407316
2,3, 5, 5, 0,12,50.00,60.00,Friday
148,31.531750278193205
2,3, 5, 5, 0,13, 0.00,10.00,Friday
148,31.601466852787988
2,3, 5, 5, 0,13,10.00,20.00,Friday
148,31.722417839566263
2,3, 5, 5, 0,13,20.00,30.00,Friday
148,31.889802935488765
2,3, 5, 5, 0,13,30.00,40.00,Friday
148,31.950141497735865
2,3, 5, 5, 0,13,40.00,50.00,Friday
148,32.078867233736207
2,3, 5, 5, 0,13,50.00,60.00,Friday
148,32.13598285276289
2,3, 5, 5, 0,14, 0.00,10.00,Friday
148,32.14107897933964
2,3, 5, 5, 0,14,10.00,20.00,Friday
148,32.26393610216263
2,3, 5, 5, 0,14,20.00,30.00,Friday
148,32.35461931436508
2,3, 5, 5, 0,14,30.00,40.00,Friday
148,32.435172330530679
2,3, 5, 5, 0,14,40.00,50.00,Friday
148,32.58473915572091
2,3, 5, 5, 0,14,50.00,60.00,Friday
148,32.642653045143919
2,3, 5, 5, 0,15, 0.00,10.00,Friday
148,32.631131086920728
2,3, 5, 5, 0,15,10.00,20.00,Friday
148,32.66046047786629
2,3, 5, 5, 0,15,20.00,30.00,Friday
148,32.722655118334149
2,3, 5, 5, 0,15,30.00,40.00,Friday
148,32.80603393625239
2,3, 5, 5, 0,15,40.00,50.00,Friday
148,32.92422843937723
2,3, 5, 5, 0,15,50.00,60.00,Friday
148,32.99674679091949
2,3, 5, 5, 0,16, 0.00,10.00,Friday
148,33.07825283804476
2,3, 5, 5, 0,16,10.00,20.00,Friday
148,33.15735512037742
2,3, 5, 5, 0,16,20.00,30.00,Friday
148,33.23547624090469
2,3, 5, 5, 0,16,30.00,40.00,Friday
148,33.3736487092161
2,3, 5, 5, 0,16,40.00,50.00,Friday
148,33.53718200926738
2,3, 5, 5, 0,16,50.00,60.00,Friday
148,33.54398143634505
2,3, 5, 5, 0,17, 0.00,10.00,Friday
148,33.52124840449808
2,3, 5, 5, 0,17,10.00,20.00,Friday
148,33.57428574410212
2,3, 5, 5, 0,17,20.00,30.00,Friday
148,33.61225363575389
2,3, 5, 5, 0,17,30.00,40.00,Friday
148,33.57635831193535
2,3, 5, 5, 0,17,40.00,50.00,Friday
148,33.524627748942297
2,3, 5, 5, 0,17,50.00,60.00,Friday
148,33.49615971864194
2,3, 5, 5, 0,18, 0.00,10.00,Friday
148,33.532241211785869
2,3, 5, 5, 0,18,10.00,20.00,Friday
148,33.61840698249883
2,3, 5, 5, 0,18,20.00,30.00,Friday
148,33.7148219416796
2,3, 5, 5, 0,18,30.00,40.00,Friday
148,33.75880422235666
2,3, 5, 5, 0,18,40.00,50.00,Friday
148,33.786387743971
2,3, 5, 5, 0,18,50.00,60.00,Friday
148,33.7603982188846
2,3, 5, 5, 0,19, 0.00,10.00,Friday
148,32.27342888202136
2,3, 5, 5, 0,19,10.00,20.00,Friday
148,31.788191027919497
2,3, 5, 5, 0,19,20.00,30.00,Friday
148,31.56959026688555
2,3, 5, 5, 0,19,30.00,40.00,Friday
148,31.29462123432872
2,3, 5, 5, 0,19,40.00,50.00,Friday
148,31.169886950035126
2,3, 5, 5, 0,19,50.00,60.00,Friday
148,30.984557369012636
2,3, 5, 5, 0,20, 0.00,10.00,Friday
148,30.811902901093409
2,3, 5, 5, 0,20,10.00,20.00,Friday
148,30.711626903579963
2,3, 5, 5, 0,20,20.00,30.00,Friday
148,30.661637914269066
2,3, 5, 5, 0,20,30.00,40.00,Friday
148,30.633047484689699
2,3, 5, 5, 0,20,40.00,50.00,Friday
148,30.587220342236738
2,3, 5, 5, 0,20,50.00,60.00,Friday
148,30.515226045201474
2,3, 5, 5, 0,21, 0.00,10.00,Friday
148,30.447719617748047
2,3, 5, 5, 0,21,10.00,20.00,Friday
148,30.384337807624534
2,3, 5, 5, 0,21,20.00,30.00,Friday
148,30.319397909660166
2,3, 5, 5, 0,21,30.00,40.00,Friday
148,30.243383034779535
2,3, 5, 5, 0,21,40.00,50.00,Friday
148,30.159489877999648
2,3, 5, 5, 0,21,50.00,60.00,Friday
148,30.07135023413189
2,3, 5, 5, 0,22, 0.00,10.00,Friday
148,29.982678326238639
2,3, 5, 5, 0,22,10.00,20.00,Friday
148,29.8996712747473
2,3, 5, 5, 0,22,20.00,30.00,Friday
148,29.82877905097939
2,3, 5, 5, 0,22,30.00,40.00,Friday
148,29.76877305069378
2,3, 5, 5, 0,22,40.00,50.00,Friday
148,29.707695626080484
2,3, 5, 5, 0,22,50.00,60.00,Friday
148,29.6454158686234
2,3, 5, 5, 0,23, 0.00,10.00,Friday
148,29.617117675808648
2,3, 5, 5, 0,23,10.00,20.00,Friday
148,29.549732415528845
2,3, 5, 5, 0,23,20.00,30.00,Friday
148,29.451318805247966
2,3, 5, 5, 0,23,30.00,40.00,Friday
148,29.33791282227293
2,3, 5, 5, 0,23,40.00,50.00,Friday
148,29.239180366129078
2,3, 5, 5, 0,23,50.00,60.00,Friday
148,29.159250829423518
2,3, 5, 5, 0,24, 0.00,10.00,Friday
148,29.08650658586318
2,3, 5, 5, 0,24,10.00,20.00,Friday
148,29.001939136424828
2,3, 5, 5, 0,24,20.00,30.00,Friday
148,28.9152664919019
2,3, 5, 5, 0,24,30.00,40.00,Friday
148,28.865098285191548
2,3, 5, 5, 0,24,40.00,50.00,Friday
148,28.783948814806963
2,3, 5, 5, 0,24,50.00,60.00,Friday
148,28.673440360918926
2,4, 5, 6, 0, 1, 0.00,10.00,Saturday
148,28.56050520850006
2,4, 5, 6, 0, 1,10.00,20.00,Saturday
148,28.435355008148606
2,4, 5, 6, 0, 1,20.00,30.00,Saturday
148,28.322858988316164
2,4, 5, 6, 0, 1,30.00,40.00,Saturday
148,28.244147835705623
2,4, 5, 6, 0, 1,40.00,50.00,Saturday
148,28.199307106747204
2,4, 5, 6, 0, 1,50.00,60.00,Saturday
148,28.1400421147662
2,4, 5, 6, 0, 2, 0.00,10.00,Saturday
148,28.064487857598306
2,4, 5, 6, 0, 2,10.00,20.00,Saturday
148,27.98301030368067
2,4, 5, 6, 0, 2,20.00,30.00,Saturday
148,27.89920416188301
2,4, 5, 6, 0, 2,30.00,40.00,Saturday
148,27.809684787605954
2,4, 5, 6, 0, 2,40.00,50.00,Saturday
148,27.714366760789625
2,4, 5, 6, 0, 2,50.00,60.00,Saturday
148,27.631178853349984
2,4, 5, 6, 0, 3, 0.00,10.00,Saturday
148,27.56709954128103
2,4, 5, 6, 0, 3,10.00,20.00,Saturday
148,27.466192734161579
2,4, 5, 6, 0, 3,20.00,30.00,Saturday
148,27.372776339606735
2,4, 5, 6, 0, 3,30.00,40.00,Saturday
148,27.281414570983509
2,4, 5, 6, 0, 3,40.00,50.00,Saturday
148,27.188279224192333
2,4, 5, 6, 0, 3,50.00,60.00,Saturday
148,27.122514748361167
2,4, 5, 6, 0, 4, 0.00,10.00,Saturday
148,27.06081737924273
2,4, 5, 6, 0, 4,10.00,20.00,Saturday
148,26.992118245850663
2,4, 5, 6, 0, 4,20.00,30.00,Saturday
148,26.93237056858872
2,4, 5, 6, 0, 4,30.00,40.00,Saturday
148,26.88247501341602
2,4, 5, 6, 0, 4,40.00,50.00,Saturday
148,26.84919730555688
2,4, 5, 6, 0, 4,50.00,60.00,Saturday
148,26.803451670243616
2,4, 5, 6, 0, 5, 0.00,10.00,Saturday
148,26.756492531039677
2,4, 5, 6, 0, 5,10.00,20.00,Saturday
148,26.722369722347719
2,4, 5, 6, 0, 5,20.00,30.00,Saturday
148,26.69122904973851
2,4, 5, 6, 0, 5,30.00,40.00,Saturday
148,26.632263729837228
2,4, 5, 6, 0, 5,40.00,50.00,Saturday
148,26.550019433333455
2,4, 5, 6, 0, 5,50.00,60.00,Saturday
148,26.474608973924569
2,4, 5, 6, 0, 6, 0.00,10.00,Saturday
148,26.408536781526665
2,4, 5, 6, 0, 6,10.00,20.00,Saturday
148,26.343445650127316
2,4, 5, 6, 0, 6,20.00,30.00,Saturday
148,26.287439320831667
2,4, 5, 6, 0, 6,30.00,40.00,Saturday
148,26.240289637222376
2,4, 5, 6, 0, 6,40.00,50.00,Saturday
148,26.16416838030736
2,4, 5, 6, 0, 6,50.00,60.00,Saturday
148,26.059625840131046
2,4, 5, 6, 0, 7, 0.00,10.00,Saturday
148,25.963853279261384
2,4, 5, 6, 0, 7,10.00,20.00,Saturday
148,25.895918575641347
2,4, 5, 6, 0, 7,20.00,30.00,Saturday
148,25.83031823990296
2,4, 5, 6, 0, 7,30.00,40.00,Saturday
148,25.822832880205163
2,4, 5, 6, 0, 7,40.00,50.00,Saturday
148,25.81781195813051
2,4, 5, 6, 0, 7,50.00,60.00,Saturday
148,25.780960802833044
2,4, 5, 6, 0, 8, 0.00,10.00,Saturday
148,25.765901531407509
2,4, 5, 6, 0, 8,10.00,20.00,Saturday
148,25.786069753779306
2,4, 5, 6, 0, 8,20.00,30.00,Saturday
148,25.82351418004029
2,4, 5, 6, 0, 8,30.00,40.00,Saturday
148,25.88394086536061
2,4, 5, 6, 0, 8,40.00,50.00,Saturday
148,25.954766641901175
2,4, 5, 6, 0, 8,50.00,60.00,Saturday
148,26.019183502992584
2,4, 5, 6, 0, 9, 0.00,10.00,Saturday
148,26.122429349856284
2,4, 5, 6, 0, 9,10.00,20.00,Saturday
148,26.231270092519517
2,4, 5, 6, 0, 9,20.00,30.00,Saturday
148,26.32214201266015
2,4, 5, 6, 0, 9,30.00,40.00,Saturday
148,26.396433108338333
2,4, 5, 6, 0, 9,40.00,50.00,Saturday
148,26.449665398291836
2,4, 5, 6, 0, 9,50.00,60.00,Saturday
148,26.50343992740919
2,4, 5, 6, 0,10, 0.00,10.00,Saturday
148,26.589534668145047
2,4, 5, 6, 0,10,10.00,20.00,Saturday
148,26.686202568421665
2,4, 5, 6, 0,10,20.00,30.00,Saturday
148,26.77949842649299
2,4, 5, 6, 0,10,30.00,40.00,Saturday
148,26.85537092508253
2,4, 5, 6, 0,10,40.00,50.00,Saturday
148,26.921273214410964
2,4, 5, 6, 0,10,50.00,60.00,Saturday
148,26.981087817977828
2,4, 5, 6, 0,11, 0.00,10.00,Saturday
148,27.04869980143928