Program Version,EnergyPlus, Version 9.5.0-de239b2e5f, YMD=2021.12.09 16:26
1,5,Environment Title[],Latitude[deg],Longitude[deg],Time Zone[],Elevation[m]
2,8,Day of Simulation[],Month[],Day of Month[],DST Indicator[1=yes 0=no],Hour[],StartMinute[],EndMinute[],DayType
3,5,Cumulative Day of Simulation[],Month[],Day of Month[],DST Indicator[1=yes 0=no],DayType  ! When Daily Report Variables Requested
4,2,Cumulative Days of Simulation[],Month[]  ! When Monthly Report Variables Requested
5,1,Cumulative Days of Simulation[] ! When Run Period Report Variables Requested
6,1,Calendar Year of Simulation[] ! When Annual Report Variables Requested
148,1,THERMAL ZONE: JORGE,Zone Mean Air Temperature [C] !TimeStep
596,1,JORGE,Zone Thermal Comfort Fanger Model PMV [] !TimeStep
597,1,JORGE,Zone Thermal Comfort Fanger Model PPD [%] !TimeStep
End of Data Dictionary
1,RUN PERIOD 1,  18.85, -99.14,  -6.00,1280.00
2,1, 5, 3, 0, 1, 0.00,10.00,Wednesday
148,27.219971746964164
596,-27.919137167004786
597,100.0
2,1, 5, 3, 0, 1,10.00,20.00,Wednesday
148,27.044558435254936
596,-28.299561425786107
597,100.0
2,1, 5, 3, 0, 1,20.00,30.00,Wednesday
148,26.936269785484567
596,-28.56245101847834
597,100.0
2,1, 5, 3, 0, 1,30.00,40.00,Wednesday
148,26.872193531392975
596,-28.780248659305668
597,100.0
2,1, 5, 3, 0, 1,40.00,50.00,Wednesday
148,26.820020147115089
596,-28.96771766434282
597,100.0
2,1, 5, 3, 0, 1,50.00,60.00,Wednesday
148,26.757065595603373
596,-29.177587115347256
597,100.0
2,1, 5, 3, 0, 2, 0.00,10.00,Wednesday
148,26.68757794313777
596,-29.39864664867945
597,100.0
2,1, 5, 3, 0, 2,10.00,20.00,Wednesday
148,26.644739714689565
596,-29.567173147076145
597,100.0
2,1, 5, 3, 0, 2,20.00,30.00,Wednesday
148,26.548170881313359
596,-29.84399386800114
597,100.0
2,1, 5, 3, 0, 2,30.00,40.00,Wednesday
148,26.51134428313816
596,-29.987886393479547
597,100.0
2,1, 5, 3, 0, 2,40.00,50.00,Wednesday
148,26.46956144571375
596,-30.133620488182879
597,100.0
2,1, 5, 3, 0, 2,50.00,60.00,Wednesday
148,26.42755083465208
596,-30.296683012223079
597,100.0
2,1, 5, 3, 0, 3, 0.00,10.00,Wednesday
148,26.38124884401043
596,-30.475084462048735
597,100.0
2,1, 5, 3, 0, 3,10.00,20.00,Wednesday
148,26.345814669333558
596,-30.607158942388087
597,100.0
2,1, 5, 3, 0, 3,20.00,30.00,Wednesday
148,26.291839013158698
596,-30.774729710633989
597,100.0
2,1, 5, 3, 0, 3,30.00,40.00,Wednesday
148,26.221436887638839
596,-30.99611919355063
597,100.0
2,1, 5, 3, 0, 3,40.00,50.00,Wednesday
148,26.165014912497907
596,-31.169378381730409
597,100.0
2,1, 5, 3, 0, 3,50.00,60.00,Wednesday
148,26.111225692396724
596,-31.366581214037895
597,100.0
2,1, 5, 3, 0, 4, 0.00,10.00,Wednesday
148,26.057801576805507
596,-31.551938680676224
597,100.0
2,1, 5, 3, 0, 4,10.00,20.00,Wednesday
148,26.011768264396744
596,-31.70979840619054
597,100.0
2,1, 5, 3, 0, 4,20.00,30.00,Wednesday
148,25.977890377798155
596,-31.867941178694488
597,100.0
2,1, 5, 3, 0, 4,30.00,40.00,Wednesday
148,25.88464333915019
596,-32.1438776959199
597,100.0
2,1, 5, 3, 0, 4,40.00,50.00,Wednesday
148,25.77788041102772
596,-32.467389125552198
597,100.0
2,1, 5, 3, 0, 4,50.00,60.00,Wednesday
148,25.698170289362336
596,-32.69374022657953
597,100.0
2,1, 5, 3, 0, 5, 0.00,10.00,Wednesday
148,25.66353518415582
596,-32.853933629134477
597,100.0
2,1, 5, 3, 0, 5,10.00,20.00,Wednesday
148,25.632674874961233
596,-32.986056168382699
597,100.0
2,1, 5, 3, 0, 5,20.00,30.00,Wednesday
148,25.595765771590476
596,-33.11223184946085
597,100.0
2,1, 5, 3, 0, 5,30.00,40.00,Wednesday
148,25.55121212456913
596,-33.26564054592378
597,100.0
2,1, 5, 3, 0, 5,40.00,50.00,Wednesday
148,25.53787890782302
596,-33.33851843244466
597,100.0
2,1, 5, 3, 0, 5,50.00,60.00,Wednesday
148,25.474288955606946
596,-33.568930731236189
597,100.0
2,1, 5, 3, 0, 6, 0.00,10.00,Wednesday
148,25.41117336112178
596,-33.764205624760169
597,100.0
2,1, 5, 3, 0, 6,10.00,20.00,Wednesday
148,25.285464982882229
596,-34.1464901028804
597,100.0
2,1, 5, 3, 0, 6,20.00,30.00,Wednesday
148,25.192855646337006
596,-34.39824387209884
597,100.0
2,1, 5, 3, 0, 6,30.00,40.00,Wednesday
148,25.09083541230874
596,-34.740708479020408
597,100.0
2,1, 5, 3, 0, 6,40.00,50.00,Wednesday
148,25.007574396608566
596,-34.974308928637807
597,100.0
2,1, 5, 3, 0, 6,50.00,60.00,Wednesday
148,24.941612535601565
596,-35.19516862732936
597,100.0
2,1, 5, 3, 0, 7, 0.00,10.00,Wednesday
148,24.905260236168286
596,-35.32704977362742
597,100.0
2,1, 5, 3, 0, 7,10.00,20.00,Wednesday
148,24.902108924762194
596,-35.37505849236428
597,100.0
2,1, 5, 3, 0, 7,20.00,30.00,Wednesday
148,24.882795650527507
596,-35.49378320973468
597,100.0
2,1, 5, 3, 0, 7,30.00,40.00,Wednesday
148,24.810768509502858
596,-35.7324417280326
597,100.0
2,1, 5, 3, 0, 7,40.00,50.00,Wednesday
148,24.74919763398942
596,-35.884741611749777
597,100.0
2,1, 5, 3, 0, 7,50.00,60.00,Wednesday
148,24.78827598100179
596,-35.772885023825768
597,100.0
2,1, 5, 3, 0, 8, 0.00,10.00,Wednesday
148,24.82069091026508
596,-35.72515390870239
597,100.0
2,1, 5, 3, 0, 8,10.00,20.00,Wednesday
148,24.801899787133978
596,-35.786161215495358
597,100.0
2,1, 5, 3, 0, 8,20.00,30.00,Wednesday
148,24.83819827325621
596,-35.6670328539727
597,100.0
2,1, 5, 3, 0, 8,30.00,40.00,Wednesday
148,24.888706631503508
596,-35.51537890209123
597,100.0
2,1, 5, 3, 0, 8,40.00,50.00,Wednesday
148,24.986796724503525
596,-35.24618630833404
597,100.0
2,1, 5, 3, 0, 8,50.00,60.00,Wednesday
148,25.124400227805709
596,-34.88450283164984
597,100.0
2,1, 5, 3, 0, 9, 0.00,10.00,Wednesday
148,25.231345612193068
596,-34.50704411252347
597,100.0
2,1, 5, 3, 0, 9,10.00,20.00,Wednesday
148,25.349880715234087
596,-34.24749568103926
597,100.0
2,1, 5, 3, 0, 9,20.00,30.00,Wednesday
148,25.44889728761714
596,-34.01691902834108
597,100.0
2,1, 5, 3, 0, 9,30.00,40.00,Wednesday
148,25.523092735852914
596,-33.80359707311042
597,100.0
2,1, 5, 3, 0, 9,40.00,50.00,Wednesday
148,25.59850628370962
596,-33.55269169012791
597,100.0
2,1, 5, 3, 0, 9,50.00,60.00,Wednesday
148,25.679828045936554
596,-33.30891302294455
597,100.0
2,1, 5, 3, 0,10, 0.00,10.00,Wednesday
148,27.940275003763678
596,0.38311347078688248
597,8.056700846526653
2,1, 5, 3, 0,10,10.00,20.00,Wednesday
148,28.267383129790916
596,0.506691649647383
597,10.36696545121238
2,1, 5, 3, 0,10,20.00,30.00,Wednesday
148,28.56703185078566
596,0.5843166557182847
597,12.155208203716044
2,1, 5, 3, 0,10,30.00,40.00,Wednesday
148,29.081797520388318
596,0.7297066703088067
597,16.207404362588293
2,1, 5, 3, 0,10,40.00,50.00,Wednesday
148,29.271798183233935
596,0.8112338841910916
597,18.877926769569528
2,1, 5, 3, 0,10,50.00,60.00,Wednesday
148,29.26906890076817
596,0.8439536422057079
597,20.028862641297608
2,1, 5, 3, 0,11, 0.00,10.00,Wednesday
148,29.30563545066547
596,0.8684382189775779
597,20.919343551734515
2,1, 5, 3, 0,11,10.00,20.00,Wednesday
148,29.447443357687843
596,0.9415181845883901
597,23.723112475234033
2,1, 5, 3, 0,11,20.00,30.00,Wednesday
148,29.590314134347844
596,1.0148551497632959
597,26.749305969678006
2,1, 5, 3, 0,11,30.00,40.00,Wednesday
148,29.706946631224818
596,1.079351048166948
597,29.5772737888051
2,1, 5, 3, 0,11,40.00,50.00,Wednesday
148,29.808712127110814
596,1.1392730650757915
597,32.33503383079304
2,1, 5, 3, 0,11,50.00,60.00,Wednesday
148,29.890385252047488
596,1.178881732352258
597,34.22192484420425
2,1, 5, 3, 0,12, 0.00,10.00,Wednesday
148,30.052453030628468
596,1.2493883711381384
597,37.69504271076219
2,1, 5, 3, 0,12,10.00,20.00,Wednesday
148,30.137517219283369
596,1.2860814152263365
597,39.55463154517215
2,1, 5, 3, 0,12,20.00,30.00,Wednesday
148,30.340263896324815
596,1.3796313671898364
597,44.42935406483445
2,1, 5, 3, 0,12,30.00,40.00,Wednesday
148,30.437798605917668
596,1.425337119429141
597,46.86666177171661
2,1, 5, 3, 0,12,40.00,50.00,Wednesday
148,30.594093815401558
596,1.4959599138512748
597,50.68071878070415
2,1, 5, 3, 0,12,50.00,60.00,Wednesday
148,30.73765902697173
596,1.5571387469299803
597,54.01048716695195
2,1, 5, 3, 0,13, 0.00,10.00,Wednesday
148,30.89712039386639
596,1.6280549140120804
597,57.87022202275938
2,1, 5, 3, 0,13,10.00,20.00,Wednesday
148,31.02644262181941
596,1.680101576213761
597,60.68371023989219
2,1, 5, 3, 0,13,20.00,30.00,Wednesday
148,31.132761271493064
596,1.7375580997661369
597,63.75190582080117
2,1, 5, 3, 0,13,30.00,40.00,Wednesday
148,31.232927501747047
596,1.7864373735644173
597,66.31729261071713
2,1, 5, 3, 0,13,40.00,50.00,Wednesday
148,31.347273401772804
596,1.8356228835242675
597,68.84502556532928
2,1, 5, 3, 0,13,50.00,60.00,Wednesday
148,31.393919976412467
596,1.8580865943194272
597,69.97849074390504
2,1, 5, 3, 0,14, 0.00,10.00,Wednesday
148,31.384909505119248
596,1.893302871042343
597,71.7256354322623
2,1, 5, 3, 0,14,10.00,20.00,Wednesday
148,31.50292712762287
596,1.9718826785572828
597,75.47555966048869
2,1, 5, 3, 0,14,20.00,30.00,Wednesday
148,31.66081203682613
596,2.042233435277998
597,78.63343921190688
2,1, 5, 3, 0,14,30.00,40.00,Wednesday
148,31.77204976018187
596,2.1015500482837967
597,81.13144882851599
2,1, 5, 3, 0,14,40.00,50.00,Wednesday
148,31.88571285307284
596,2.1628622079968538
597,83.54227194892094
2,1, 5, 3, 0,14,50.00,60.00,Wednesday
148,32.087242426433579
596,2.2526474578734665
597,86.73973818462948
2,1, 5, 3, 0,15, 0.00,10.00,Wednesday
148,32.01815736372673
596,1.2977412524807988
597,40.152285069481717
2,1, 5, 3, 0,15,10.00,20.00,Wednesday
148,32.08579971237598
596,1.382922643999135
597,44.60382391000948
2,1, 5, 3, 0,15,20.00,30.00,Wednesday
148,32.25665021805084
596,1.5304104456336143
597,52.554309195810848
2,1, 5, 3, 0,15,30.00,40.00,Wednesday
148,32.380136452308168
596,1.624030247623474
597,57.6517326656346
2,1, 5, 3, 0,15,40.00,50.00,Wednesday
148,32.453174144434118
596,1.671322819206542
597,60.211016741281067
2,1, 5, 3, 0,15,50.00,60.00,Wednesday
148,32.559379139398007
596,1.7539146546725142
597,64.61559248704279
2,1, 5, 3, 0,16, 0.00,10.00,Wednesday
148,32.6729359957463
596,1.845846836544667
597,69.36264791184593
2,1, 5, 3, 0,16,10.00,20.00,Wednesday
148,32.76417081132012
596,1.9001443355065986
597,72.06056119760749
2,1, 5, 3, 0,16,20.00,30.00,Wednesday
148,32.79584158011862
596,1.926837127396677
597,73.35246396225212
2,1, 5, 3, 0,16,30.00,40.00,Wednesday
148,32.83009073720427
596,1.9562151228554057
597,74.74558164695118
2,1, 5, 3, 0,16,40.00,50.00,Wednesday
148,32.87158625240191
596,1.9962579933544025
597,76.59243776152428
2,1, 5, 3, 0,16,50.00,60.00,Wednesday
148,32.77033526989348
596,1.9063104445174533
597,72.36111713467344
2,1, 5, 3, 0,17, 0.00,10.00,Wednesday
148,32.62643493381434
596,2.7223111608576646
597,97.00342449766942
2,1, 5, 3, 0,17,10.00,20.00,Wednesday
148,32.506697058891628
596,2.675684909489606
597,96.42032108810649
2,1, 5, 3, 0,17,20.00,30.00,Wednesday
148,32.40196148416703
596,2.6346561912193859
597,95.8389824373192
2,1, 5, 3, 0,17,30.00,40.00,Wednesday
148,32.26291496272236
596,2.594750285320824
597,95.2081699657996
2,1, 5, 3, 0,17,40.00,50.00,Wednesday
148,32.192197675084397
596,2.571635665819078
597,94.81187193339119
2,1, 5, 3, 0,17,50.00,60.00,Wednesday
148,32.26628274903286
596,2.5985091763697349
597,95.27043898956568
2,1, 5, 3, 0,18, 0.00,10.00,Wednesday
148,32.26398526042213
596,2.5940813461182867
597,95.19702521647382
2,1, 5, 3, 0,18,10.00,20.00,Wednesday
148,32.21400704104441
596,2.576769984351335
597,94.9019063690306
2,1, 5, 3, 0,18,20.00,30.00,Wednesday
148,32.19142878439366
596,2.57073152963556
597,94.795897344783
2,1, 5, 3, 0,18,30.00,40.00,Wednesday
148,32.20140482126951
596,2.5732999223446826
597,94.84118264594408
2,1, 5, 3, 0,18,40.00,50.00,Wednesday
148,32.243587702701137
596,2.5880960203579916
597,95.09645364573309
2,1, 5, 3, 0,18,50.00,60.00,Wednesday
148,32.27780033700877
596,2.5970975869761134
597,95.24712554000752
2,1, 5, 3, 0,19, 0.00,10.00,Wednesday
148,30.77700625588224
596,-17.58337202065535
597,100.0
2,1, 5, 3, 0,19,10.00,20.00,Wednesday
148,30.281388004497346
596,-18.564159012929914
597,100.0
2,1, 5, 3, 0,19,20.00,30.00,Wednesday
148,30.00404724758031
596,-19.152498674862544
597,100.0
2,1, 5, 3, 0,19,30.00,40.00,Wednesday
148,29.469651727538449
596,-20.052817024219068
597,100.0
2,1, 5, 3, 0,19,40.00,50.00,Wednesday
148,29.21551594014456
596,-20.580960044901837
597,100.0
2,1, 5, 3, 0,19,50.00,60.00,Wednesday
148,29.161053560312334
596,-20.8677782127399
597,100.0
2,1, 5, 3, 0,20, 0.00,10.00,Wednesday
148,29.138823844632936
596,-21.01788120553243
597,100.0
2,1, 5, 3, 0,20,10.00,20.00,Wednesday
148,29.077822841320488
596,-21.218773066424963
597,100.0
2,1, 5, 3, 0,20,20.00,30.00,Wednesday
148,29.006783126893489
596,-21.43611827268463
597,100.0
2,1, 5, 3, 0,20,30.00,40.00,Wednesday
148,28.9183739807025
596,-21.657380623407957
597,100.0
2,1, 5, 3, 0,20,40.00,50.00,Wednesday
148,28.81738865132345
596,-21.953772832588258
597,100.0
2,1, 5, 3, 0,20,50.00,60.00,Wednesday
148,28.726920691299854
596,-22.25952392078612
597,100.0
2,1, 5, 3, 0,21, 0.00,10.00,Wednesday
148,28.673788729643165
596,-22.47457099534709
597,100.0
2,1, 5, 3, 0,21,10.00,20.00,Wednesday
148,28.614492392209479
596,-22.64900518991457
597,100.0
2,1, 5, 3, 0,21,20.00,30.00,Wednesday
148,28.53247613104284
596,-22.94152481093561
597,100.0
2,1, 5, 3, 0,21,30.00,40.00,Wednesday
148,28.458075623772794
596,-23.21566521473014
597,100.0
2,1, 5, 3, 0,21,40.00,50.00,Wednesday
148,28.41062021849238
596,-23.420049179038025
597,100.0
2,1, 5, 3, 0,21,50.00,60.00,Wednesday
148,28.332803672959704
596,-23.756655304950177
597,100.0
2,1, 5, 3, 0,22, 0.00,10.00,Wednesday
148,28.276367688151387
596,-23.996902231498834
597,100.0
2,1, 5, 3, 0,22,10.00,20.00,Wednesday
148,28.219675774963205
596,-24.281830975526224
597,100.0
2,1, 5, 3, 0,22,20.00,30.00,Wednesday
148,28.141979476040086
596,-24.585896021009594
597,100.0
2,1, 5, 3, 0,22,30.00,40.00,Wednesday
148,28.05135582409953
596,-24.851562777688323
597,100.0
2,1, 5, 3, 0,22,40.00,50.00,Wednesday
148,27.9855677492705
596,-25.074423128491469
597,100.0
2,1, 5, 3, 0,22,50.00,60.00,Wednesday
148,27.92303687204692
596,-25.339016422416333
597,100.0
2,1, 5, 3, 0,23, 0.00,10.00,Wednesday
148,27.89957945058771
596,-25.46820804694576
597,100.0
2,1, 5, 3, 0,23,10.00,20.00,Wednesday
148,27.867860206431254
596,-25.555981985915048
597,100.0
2,1, 5, 3, 0,23,20.00,30.00,Wednesday
148,27.817682043880969
596,-25.762850218581997
597,100.0
2,1, 5, 3, 0,23,30.00,40.00,Wednesday
148,27.76379458127376
596,-25.98995366277084
597,100.0
2,1, 5, 3, 0,23,40.00,50.00,Wednesday
148,27.68999444278262
596,-26.200842110073276
597,100.0
2,1, 5, 3, 0,23,50.00,60.00,Wednesday
148,27.663989102673058
596,-26.294591128536906
597,100.0
2,1, 5, 3, 0,24, 0.00,10.00,Wednesday
148,27.62947895462147
596,-26.425444715178999
597,100.0
2,1, 5, 3, 0,24,10.00,20.00,Wednesday
148,27.57671123899449
596,-26.605759919870299
597,100.0
2,1, 5, 3, 0,24,20.00,30.00,Wednesday
148,27.522007687754344
596,-26.78863561834124
597,100.0
2,1, 5, 3, 0,24,30.00,40.00,Wednesday
148,27.479389784429196
596,-26.94018094132272
597,100.0
2,1, 5, 3, 0,24,40.00,50.00,Wednesday
148,27.437902777600525
596,-27.101218309156026
597,100.0
2,1, 5, 3, 0,24,50.00,60.00,Wednesday
148,27.4033150182782
596,-27.243257817390285
597,100.0
2,2, 5, 4, 0, 1, 0.00,10.00,Thursday
148,27.379072693569414
596,-27.375262903719738
597,100.0
2,2, 5, 4, 0, 1,10.00,20.00,Thursday
148,27.301623382959819
596,-27.62578257876838
597,100.0
2,2, 5, 4, 0, 1,20.00,30.00,Thursday
148,27.220636979058509
596,-27.85395985818695
597,100.0
2,2, 5, 4, 0, 1,30.00,40.00,Thursday
148,27.141086674290688
596,-28.10235469289871
597,100.0
2,2, 5, 4, 0, 1,40.00,50.00,Thursday
148,27.088833996048164
596,-28.262726661404679
597,100.0
2,2, 5, 4, 0, 1,50.00,60.00,Thursday
148,27.05528009379269
596,-28.395641608516649
597,100.0
2,2, 5, 4, 0, 2, 0.00,10.00,Thursday
148,27.02441055477733
596,-28.521544044318654
597,100.0
2,2, 5, 4, 0, 2,10.00,20.00,Thursday
148,26.98600313748622
596,-28.665682691567555
597,100.0
2,2, 5, 4, 0, 2,20.00,30.00,Thursday
148,26.951109585839214
596,-28.784313121814859
597,100.0
2,2, 5, 4, 0, 2,30.00,40.00,Thursday
148,26.913574725354409
596,-28.92591645414979
597,100.0
2,2, 5, 4, 0, 2,40.00,50.00,Thursday
148,26.87603120833883
596,-29.057497293656426
597,100.0
2,2, 5, 4, 0, 2,50.00,60.00,Thursday
148,26.836033948981699
596,-29.203768011704108
597,100.0
2,2, 5, 4, 0, 3, 0.00,10.00,Thursday
148,26.78717519735088
596,-29.37615780899744
597,100.0
2,2, 5, 4, 0, 3,10.00,20.00,Thursday
148,26.717052424400788
596,-29.60601004292817
597,100.0
2,2, 5, 4, 0, 3,20.00,30.00,Thursday
148,26.673991977959905
596,-29.768412706769977
597,100.0
2,2, 5, 4, 0, 3,30.00,40.00,Thursday
148,26.59923943363075
596,-29.989370926902969
597,100.0
2,2, 5, 4, 0, 3,40.00,50.00,Thursday
148,26.518356705157168
596,-30.20419942577427
597,100.0
2,2, 5, 4, 0, 3,50.00,60.00,Thursday
148,26.475045142849106
596,-30.38091145838367
597,100.0
2,2, 5, 4, 0, 4, 0.00,10.00,Thursday
148,26.390783167118799
596,-30.63702916592292
597,100.0
2,2, 5, 4, 0, 4,10.00,20.00,Thursday
148,26.28236477853585
596,-30.92835105435935
597,100.0
2,2, 5, 4, 0, 4,20.00,30.00,Thursday
148,26.23558920041612
596,-31.10104268076645
597,100.0
2,2, 5, 4, 0, 4,30.00,40.00,Thursday
148,26.159609168600075
596,-31.324756911032016
597,100.0
2,2, 5, 4, 0, 4,40.00,50.00,Thursday
148,26.078698175188479
596,-31.535773753397334
597,100.0
2,2, 5, 4, 0, 4,50.00,60.00,Thursday
148,26.065980248790106
596,-31.60863932956197
597,100.0
2,2, 5, 4, 0, 5, 0.00,10.00,Thursday
148,25.98463735011347
596,-31.86984489558024
597,100.0
2,2, 5, 4, 0, 5,10.00,20.00,Thursday
148,25.896732743034357
596,-32.119724394558748
597,100.0
2,2, 5, 4, 0, 5,20.00,30.00,Thursday
148,25.849235162498208
596,-32.25071156083026
597,100.0
2,2, 5, 4, 0, 5,30.00,40.00,Thursday
148,25.828943680680355
596,-32.356253382341098
597,100.0
2,2, 5, 4, 0, 5,40.00,50.00,Thursday
148,25.795824807534488
596,-32.5180839256427
597,100.0
2,2, 5, 4, 0, 5,50.00,60.00,Thursday
148,25.73051091933641
596,-32.72463022190186
597,100.0
2,2, 5, 4, 0, 6, 0.00,10.00,Thursday
148,25.67537539914073
596,-32.871464306303007
597,100.0
2,2, 5, 4, 0, 6,10.00,20.00,Thursday
148,25.587588997873696
596,-33.17415842211627
597,100.0
2,2, 5, 4, 0, 6,20.00,30.00,Thursday
148,25.5463599417119
596,-33.324392343178057
597,100.0
2,2, 5, 4, 0, 6,30.00,40.00,Thursday
148,25.455615607284665
596,-33.620412633874028
597,100.0
2,2, 5, 4, 0, 6,40.00,50.00,Thursday
148,25.351373218703868
596,-33.893555321773209
597,100.0
2,2, 5, 4, 0, 6,50.00,60.00,Thursday
148,25.303063451606169
596,-34.01300297832023
597,100.0
2,2, 5, 4, 0, 7, 0.00,10.00,Thursday
148,25.321105329856655
596,-34.02119832766514
597,100.0
2,2, 5, 4, 0, 7,10.00,20.00,Thursday
148,25.333817994835476
596,-34.03856371410325
597,100.0
2,2, 5, 4, 0, 7,20.00,30.00,Thursday
148,25.29952043333253
596,-34.16573105727324
597,100.0
2,2, 5, 4, 0, 7,30.00,40.00,Thursday
148,25.279465599443584
596,-34.25517275889
597,100.0
2,2, 5, 4, 0, 7,40.00,50.00,Thursday
148,25.265917367614337
596,-34.28763615408109
597,100.0
2,2, 5, 4, 0, 7,50.00,60.00,Thursday
148,25.260416310394058
596,-34.31146840346431
597,100.0
2,2, 5, 4, 0, 8, 0.00,10.00,Thursday
148,25.258850536611676
596,-34.334527959324947
597,100.0
2,2, 5, 4, 0, 8,10.00,20.00,Thursday
148,25.26911760828947
596,-34.31559467804537
597,100.0
2,2, 5, 4, 0, 8,20.00,30.00,Thursday
148,25.283280499523927
596,-34.27953331279319
597,100.0
2,2, 5, 4, 0, 8,30.00,40.00,Thursday
148,25.331858292314306
596,-34.140376797851669
597,100.0
2,2, 5, 4, 0, 8,40.00,50.00,Thursday
148,25.41106760651999
596,-33.91503897041148
597,100.0
2,2, 5, 4, 0, 8,50.00,60.00,Thursday
148,25.51278224805378
596,-33.660577224310198
597,100.0
2,2, 5, 4, 0, 9, 0.00,10.00,Thursday
148,25.56135154655527
596,-33.505418622230838
597,100.0
2,2, 5, 4, 0, 9,10.00,20.00,Thursday
148,25.613662010753115
596,-33.41974660436246
597,100.0
2,2, 5, 4, 0, 9,20.00,30.00,Thursday
148,25.708239589539259
596,-33.10421477996018
597,100.0
2,2, 5, 4, 0, 9,30.00,40.00,Thursday
148,25.821672020414238
596,-32.79739805140515
597,100.0
2,2, 5, 4, 0, 9,40.00,50.00,Thursday
148,25.929546256533386
596,-32.4786502875622
597,100.0
2,2, 5, 4, 0, 9,50.00,60.00,Thursday
148,25.990475233571009
596,-32.36983103746545
597,100.0
2,2, 5, 4, 0,10, 0.00,10.00,Thursday
148,28.150465668174158
596,0.4525797971999406
597,9.27453974456688
2,2, 5, 4, 0,10,10.00,20.00,Thursday
148,28.386805686962878
596,0.5492930257408231
597,11.316040950386395
2,2, 5, 4, 0,10,20.00,30.00,Thursday
148,28.68334230815428
596,0.6307218395135771
597,13.349059782916754
2,2, 5, 4, 0,10,30.00,40.00,Thursday
148,29.14230509840681
596,0.7578388106600519
597,17.096854996933958
2,2, 5, 4, 0,10,40.00,50.00,Thursday
148,29.313070250850705
596,0.8361694398581493
597,19.750982709632795
2,2, 5, 4, 0,10,50.00,60.00,Thursday
148,29.357771114578037
596,0.8872927108358407
597,21.621935749669008
2,2, 5, 4, 0,11, 0.00,10.00,Thursday
148,29.431261984396863
596,0.940433623982442
597,23.679931488949266
2,2, 5, 4, 0,11,10.00,20.00,Thursday
148,29.537984895427017
596,0.9986291204037441
597,26.061963631381248
2,2, 5, 4, 0,11,20.00,30.00,Thursday
148,29.61713611820349
596,1.035454751439675
597,27.63609038371662
2,2, 5, 4, 0,11,30.00,40.00,Thursday
148,29.756164404012578
596,1.0980450918883614
597,30.424605437700067
2,2, 5, 4, 0,11,40.00,50.00,Thursday
148,29.88442285568147
596,1.1524930033450785
597,32.95935943453131
2,2, 5, 4, 0,11,50.00,60.00,Thursday
148,29.982664634304386
596,1.2059143664201076
597,35.53698762658557
2,2, 5, 4, 0,12, 0.00,10.00,Thursday
148,30.15568741635804
596,1.2809708734300825
597,39.29367140361245
2,2, 5, 4, 0,12,10.00,20.00,Thursday
148,30.284252569287387
596,1.3329566469554096
597,41.97544355420462
2,2, 5, 4, 0,12,20.00,30.00,Thursday
148,30.409917734773729
596,1.392050562031939
597,45.0885902324421
2,2, 5, 4, 0,12,30.00,40.00,Thursday
148,30.599212385519814
596,1.469249598620211
597,49.232881140483929
2,2, 5, 4, 0,12,40.00,50.00,Thursday
148,30.65361046429185
596,1.500869193025511
597,50.947354279296778
2,2, 5, 4, 0,12,50.00,60.00,Thursday
148,30.695545185549347
596,1.523151456579961
597,52.15911445362557
2,2, 5, 4, 0,13, 0.00,10.00,Thursday
148,30.8560262411941
596,1.5963962471014375
597,56.14916584576579
2,2, 5, 4, 0,13,10.00,20.00,Thursday
148,31.03697580773491
596,1.6773498963581102
597,60.535640429270227
2,2, 5, 4, 0,13,20.00,30.00,Thursday
148,31.14524316383329
596,1.7223460431100358
597,62.944436905472247
2,2, 5, 4, 0,13,30.00,40.00,Thursday
148,31.26491505643328
596,1.7717558536489433
597,65.55182427410048
2,2, 5, 4, 0,13,40.00,50.00,Thursday
148,31.360853247302715
596,1.8152760470152774
597,67.8066257059912
2,2, 5, 4, 0,13,50.00,60.00,Thursday
148,31.502952655800589
596,1.8765060886542098
597,70.89703987343973
2,2, 5, 4, 0,14, 0.00,10.00,Thursday
148,31.58237023600816
596,1.9322221432221474
597,73.61013428463015
2,2, 5, 4, 0,14,10.00,20.00,Thursday
148,31.63958798514501
596,1.962494242690083
597,75.03924798887972
2,2, 5, 4, 0,14,20.00,30.00,Thursday
148,31.689741733616846
596,1.9888476234680193
597,76.25536667732205
2,2, 5, 4, 0,14,30.00,40.00,Thursday
148,31.74115371084242
596,2.0160359565821439
597,77.48121308446395
2,2, 5, 4, 0,14,40.00,50.00,Thursday
148,31.77813103442213
596,2.0368268411102177
597,78.39802951574892
2,2, 5, 4, 0,14,50.00,60.00,Thursday
148,31.941443473738905
596,2.1190790588079198
597,81.83893027833847
2,2, 5, 4, 0,15, 0.00,10.00,Thursday
148,32.104118045352787
596,1.2932750224199333
597,39.92298981402313
2,2, 5, 4, 0,15,10.00,20.00,Thursday
148,32.13674159870734
596,1.3182755278434926
597,41.21218872210526
2,2, 5, 4, 0,15,20.00,30.00,Thursday
148,32.161620900031227
596,1.3401588348576546
597,42.35146174588062
2,2, 5, 4, 0,15,30.00,40.00,Thursday
148,32.1970706650462
596,1.373033710781899
597,44.080147119270389
2,2, 5, 4, 0,15,40.00,50.00,Thursday
148,32.23291963129018
596,1.4258524373836357
597,46.894304989582298
2,2, 5, 4, 0,15,50.00,60.00,Thursday
148,32.32668514969439
596,1.5174759884962684
597,51.85025953310109
2,2, 5, 4, 0,16, 0.00,10.00,Thursday
148,32.46275997927407
596,1.6252946196522296
597,57.72038352682956
2,2, 5, 4, 0,16,10.00,20.00,Thursday
148,32.597903785062687
596,1.7290808755144332
597,63.30240547702454
2,2, 5, 4, 0,16,20.00,30.00,Thursday
148,32.728458236162669
596,1.8138530549747119
597,67.73360671895174
2,2, 5, 4, 0,16,30.00,40.00,Thursday
148,32.77353345543283
596,1.8572326998011557
597,69.93566591626777
2,2, 5, 4, 0,16,40.00,50.00,Thursday
148,32.7759636296644
596,1.8532968512509763
597,69.73800249802561
2,2, 5, 4, 0,16,50.00,60.00,Thursday
148,32.77494443477324
596,1.857488514080924
597,69.94849781837908
2,2, 5, 4, 0,17, 0.00,10.00,Thursday
148,32.79780315901066
596,2.734145527784183
597,97.13900959922153
2,2, 5, 4, 0,17,10.00,20.00,Thursday
148,32.83627080338791
596,2.761368960584411
597,97.43279277655305
2,2, 5, 4, 0,17,20.00,30.00,Thursday
148,32.81416077195018
596,2.7586658579571008
597,97.40472532969469
2,2, 5, 4, 0,17,30.00,40.00,Thursday
148,32.85879002352271
596,2.797988546871856
597,97.79005275556989
2,2, 5, 4, 0,17,40.00,50.00,Thursday
148,32.85517388473055
596,2.798860207115452
597,97.79804942254602
2,2, 5, 4, 0,17,50.00,60.00,Thursday
148,32.83970551997899
596,2.795066438577994
597,97.76307712211652
2,2, 5, 4, 0,18, 0.00,10.00,Thursday
148,32.80808298147789
596,2.7853854988295998
597,97.67183983865613
2,2, 5, 4, 0,18,10.00,20.00,Thursday
148,32.82777653928501
596,2.795108868913626
597,97.76347067742594
2,2, 5, 4, 0,18,20.00,30.00,Thursday
148,32.87266065033069
596,2.814592514733798
597,97.93847457106947
2,2, 5, 4, 0,18,30.00,40.00,Thursday
148,32.94978626976612
596,2.8415973092281026
597,98.16281155034182
2,2, 5, 4, 0,18,40.00,50.00,Thursday
148,33.001730611863049
596,2.857095466223619
597,98.2824372160864
2,2, 5, 4, 0,18,50.00,60.00,Thursday
148,32.96905043528728
596,2.8392536409267086
597,98.1441534483409
2,2, 5, 4, 0,19, 0.00,10.00,Thursday
148,31.449418749217608
596,-15.633303048802743
597,100.0
2,2, 5, 4, 0,19,10.00,20.00,Thursday
148,30.93728053841202
596,-16.614049227319997
597,100.0
2,2, 5, 4, 0,19,20.00,30.00,Thursday
148,30.705528443911726
596,-16.972141273778644
597,100.0
2,2, 5, 4, 0,19,30.00,40.00,Thursday
148,30.20068198250504
596,-17.84368351338862
597,100.0
2,2, 5, 4, 0,19,40.00,50.00,Thursday
148,30.048716563299089
596,-18.194255973707269
597,100.0
2,2, 5, 4, 0,19,50.00,60.00,Thursday
148,29.994370499744329
596,-18.452223905902366
597,100.0
2,2, 5, 4, 0,20, 0.00,10.00,Thursday
148,29.92790999146344
596,-18.664137413750948
597,100.0
2,2, 5, 4, 0,20,10.00,20.00,Thursday
148,29.844517151740534
596,-18.90756133005252
597,100.0
2,2, 5, 4, 0,20,20.00,30.00,Thursday
148,29.760440062559625
596,-19.157202800128045
597,100.0
2,2, 5, 4, 0,20,30.00,40.00,Thursday
148,29.685619950302756
596,-19.380674651787314
597,100.0
2,2, 5, 4, 0,20,40.00,50.00,Thursday
148,29.61777150399317
596,-19.589860284361547
597,100.0
2,2, 5, 4, 0,20,50.00,60.00,Thursday
148,29.564342725427296
596,-19.749757988282956
597,100.0
2,2, 5, 4, 0,21, 0.00,10.00,Thursday
148,29.514851814143048
596,-19.9199501235029
597,100.0
2,2, 5, 4, 0,21,10.00,20.00,Thursday
148,29.469363769758595
596,-20.068562762596195
597,100.0
2,2, 5, 4, 0,21,20.00,30.00,Thursday
148,29.418169593455365
596,-20.244296887414973
597,100.0
2,2, 5, 4, 0,21,30.00,40.00,Thursday
148,29.375293313992075
596,-20.37269895890501
597,100.0
2,2, 5, 4, 0,21,40.00,50.00,Thursday
148,29.336027229520118
596,-20.517247121040766
597,100.0
2,2, 5, 4, 0,21,50.00,60.00,Thursday
148,29.280497287586699
596,-20.71826219604786
597,100.0
2,2, 5, 4, 0,22, 0.00,10.00,Thursday
148,29.22963590927523
596,-20.895458561360998
597,100.0
2,2, 5, 4, 0,22,10.00,20.00,Thursday
148,29.16991520648024
596,-21.049737391746107
597,100.0
2,2, 5, 4, 0,22,20.00,30.00,Thursday
148,29.08289175886788
596,-21.319342284530497
597,100.0
2,2, 5, 4, 0,22,30.00,40.00,Thursday
148,29.033596573477028
596,-21.42395117794553
597,100.0
2,2, 5, 4, 0,22,40.00,50.00,Thursday
148,29.004418863037178
596,-21.561107828264136
597,100.0
2,2, 5, 4, 0,22,50.00,60.00,Thursday
148,28.9647847550861
596,-21.724754144117786
597,100.0
2,2, 5, 4, 0,23, 0.00,10.00,Thursday
148,28.911509528078445
596,-21.89362445342836
597,100.0
2,2, 5, 4, 0,23,10.00,20.00,Thursday
148,28.84107889759481
596,-22.129384678085228
597,100.0
2,2, 5, 4, 0,23,20.00,30.00,Thursday
148,28.765230967408706
596,-22.364543060027115
597,100.0
2,2, 5, 4, 0,23,30.00,40.00,Thursday
148,28.715551047917019
596,-22.557048926617413
597,100.0
2,2, 5, 4, 0,23,40.00,50.00,Thursday
148,28.637574643655538
596,-22.782128618792023
597,100.0
2,2, 5, 4, 0,23,50.00,60.00,Thursday
148,28.571880848433886
596,-22.941597287584629
597,100.0
2,2, 5, 4, 0,24, 0.00,10.00,Thursday
148,28.537082688429419
596,-23.056722125723949
597,100.0
2,2, 5, 4, 0,24,10.00,20.00,Thursday
148,28.5067252714487
596,-23.195535958324699
597,100.0
2,2, 5, 4, 0,24,20.00,30.00,Thursday
148,28.467001457297216
596,-23.352999610366135
597,100.0
2,2, 5, 4, 0,24,30.00,40.00,Thursday
148,28.41742006376298
596,-23.528839516244877
597,100.0
2,2, 5, 4, 0,24,40.00,50.00,Thursday
148,28.357520379491338
596,-23.759748760838339
597,100.0
2,2, 5, 4, 0,24,50.00,60.00,Thursday
148,28.28067324289046
596,-23.959882700251169
597,100.0
2,3, 5, 5, 0, 1, 0.00,10.00,Friday
148,28.193584189568346
596,-24.2135521246599
597,100.0
2,3, 5, 5, 0, 1,10.00,20.00,Friday
148,28.17226860563771
596,-24.299981609721767
597,100.0
2,3, 5, 5, 0, 1,20.00,30.00,Friday
148,28.10763120744003
596,-24.492537827821545
597,100.0
2,3, 5, 5, 0, 1,30.00,40.00,Friday
148,28.058910465319135
596,-24.642229864133996
597,100.0
2,3, 5, 5, 0, 1,40.00,50.00,Friday
148,28.02280513654794
596,-24.80902102326563
597,100.0
2,3, 5, 5, 0, 1,50.00,60.00,Friday
148,27.972578412371005
596,-24.95554220857433
597,100.0
2,3, 5, 5, 0, 2, 0.00,10.00,Friday
148,27.9060762578131
596,-25.166065987826629
597,100.0
2,3, 5, 5, 0, 2,10.00,20.00,Friday
148,27.824779391016514
596,-25.42989045584453
597,100.0
2,3, 5, 5, 0, 2,20.00,30.00,Friday
148,27.73549163933277
596,-25.707300089866928
597,100.0
2,3, 5, 5, 0, 2,30.00,40.00,Friday
148,27.64248020630176
596,-26.035232686980878
597,100.0