Program Version,EnergyPlus, Version 9.2.0-921312fa1d, YMD=2021.12.07 15:16
1,5,Environment Title[],Latitude[deg],Longitude[deg],Time Zone[],Elevation[m]
2,8,Day of Simulation[],Month[],Day of Month[],DST Indicator[1=yes 0=no],Hour[],StartMinute[],EndMinute[],DayType
3,5,Cumulative Day of Simulation[],Month[],Day of Month[],DST Indicator[1=yes 0=no],DayType  ! When Daily Report Variables Requested
4,2,Cumulative Days of Simulation[],Month[]  ! When Monthly Report Variables Requested
5,1,Cumulative Days of Simulation[] ! When Run Period Report Variables Requested
6,1,Calendar Year of Simulation[] ! When Annual Report Variables Requested
7,9,Environment,Site Outdoor Air Drybulb Temperature [C] !Monthly [Value,Min,Day,Hour,Minute,Max,Day,Hour,Minute]
8,1,Environment,Site Outdoor Air Wetbulb Temperature [C] !TimeStep
95,1,THERMAL ZONE: C1,Zone Air Temperature [C] !Hourly
96,7,THERMAL ZONE: C1,Zone Air Relative Humidity [%] !Daily [Value,Min,Hour,Minute,Max,Hour,Minute]
135,1,THERMAL ZONE: C2,Zone Air Temperature [C] !Hourly
136,7,THERMAL ZONE: C2,Zone Air Relative Humidity [%] !Daily [Value,Min,Hour,Minute,Max,Hour,Minute]
175,1,THERMAL ZONE: JORGE,Zone Air Temperature [C] !Hourly
176,7,THERMAL ZONE: JORGE,Zone Air Relative Humidity [%] !Daily [Value,Min,Hour,Minute,Max,Hour,Minute]
215,1,THERMAL ZONE: TECHADA_C1,Zone Air Temperature [C] !Hourly
216,7,THERMAL ZONE: TECHADA_C1,Zone Air Relative Humidity [%] !Daily [Value,Min,Hour,Minute,Max,Hour,Minute]
255,1,THERMAL ZONE: TECHADA_C2,Zone Air Temperature [C] !Hourly
256,7,THERMAL ZONE: TECHADA_C2,Zone Air Relative Humidity [%] !Daily [Value,Min,Hour,Minute,Max,Hour,Minute]
295,1,THERMAL ZONE: TECHADA_JORGE,Zone Air Temperature [C] !Hourly
296,7,THERMAL ZONE: TECHADA_JORGE,Zone Air Relative Humidity [%] !Daily [Value,Min,Hour,Minute,Max,Hour,Minute]
End of Data Dictionary
1,RUN PERIOD 1,  18.85, -99.14,  -6.00,1280.00
2,1, 5, 3, 0, 1, 0.00,10.00,Wednesday
8,15.551453857809504
2,1, 5, 3, 0, 1,10.00,20.00,Wednesday
8,15.551341657334709
2,1, 5, 3, 0, 1,20.00,30.00,Wednesday
8,15.551141131488416
2,1, 5, 3, 0, 1,30.00,40.00,Wednesday
8,15.388477976376653
2,1, 5, 3, 0, 1,40.00,50.00,Wednesday
8,15.306586238077543
2,1, 5, 3, 0, 1,50.00,60.00,Wednesday
8,15.388878812057376
2,1, 5, 3, 0, 1, 0.00,60.00,Wednesday
95,22.61917474229307
135,22.88416515970525
175,23.004670216607093
215,26.94262208955361
255,26.994671653258476
295,27.310089209878517
2,1, 5, 3, 0, 2, 0.00,10.00,Wednesday
8,15.143756146820773
2,1, 5, 3, 0, 2,10.00,20.00,Wednesday
8,15.224833002983646
2,1, 5, 3, 0, 2,20.00,30.00,Wednesday
8,15.143032792332589
2,1, 5, 3, 0, 2,30.00,40.00,Wednesday
8,15.062181974924576
2,1, 5, 3, 0, 2,40.00,50.00,Wednesday
8,15.142921891712506
2,1, 5, 3, 0, 2,50.00,60.00,Wednesday
8,15.141611257151391
2,1, 5, 3, 0, 2, 0.00,60.00,Wednesday
95,22.2437636427231
135,22.501586498071533
175,22.635756248790697
215,26.480017647517543
255,26.539802256560134
295,26.8290352131872
2,1, 5, 3, 0, 3, 0.00,10.00,Wednesday
8,15.137520067395638
2,1, 5, 3, 0, 3,10.00,20.00,Wednesday
8,14.895974322461563
2,1, 5, 3, 0, 3,20.00,30.00,Wednesday
8,14.895835228343048
2,1, 5, 3, 0, 3,30.00,40.00,Wednesday
8,14.814025125481735
2,1, 5, 3, 0, 3,40.00,50.00,Wednesday
8,14.973131683911776
2,1, 5, 3, 0, 3,50.00,60.00,Wednesday
8,14.80835904908717
2,1, 5, 3, 0, 3, 0.00,60.00,Wednesday
95,21.926943224735529
135,22.184478048799908
175,22.328665760372077
215,26.140703493373328
255,26.206134821642505
295,26.485863090416819
2,1, 5, 3, 0, 4, 0.00,10.00,Wednesday
8,14.808464530288152
2,1, 5, 3, 0, 4,10.00,20.00,Wednesday
8,14.890851798553883
2,1, 5, 3, 0, 4,20.00,30.00,Wednesday
8,14.644033286387196
2,1, 5, 3, 0, 4,30.00,40.00,Wednesday
8,14.561791567834636
2,1, 5, 3, 0, 4,40.00,50.00,Wednesday
8,14.159172251289882
2,1, 5, 3, 0, 4,50.00,60.00,Wednesday
8,14.24176773048506
2,1, 5, 3, 0, 4, 0.00,60.00,Wednesday
95,21.641244667893337
135,21.897814761738375
175,22.049242853738638
215,25.750246074908757
255,25.816639263538034
295,26.086370317519387
2,1, 5, 3, 0, 5, 0.00,10.00,Wednesday
8,14.23319742690719
2,1, 5, 3, 0, 5,10.00,20.00,Wednesday
8,14.221041848974523
2,1, 5, 3, 0, 5,20.00,30.00,Wednesday
8,14.303499826812514
2,1, 5, 3, 0, 5,30.00,40.00,Wednesday
8,14.220722272063318
2,1, 5, 3, 0, 5,40.00,50.00,Wednesday
8,14.468544648108623
2,1, 5, 3, 0, 5,50.00,60.00,Wednesday
8,14.22120468839489
2,1, 5, 3, 0, 5, 0.00,60.00,Wednesday
95,21.363365142962228
135,21.617245532808913
175,21.774444026273569
215,25.337285059852353
255,25.408462757991264
295,25.660156890459104
2,1, 5, 3, 0, 6, 0.00,10.00,Wednesday
8,14.52457109151908
2,1, 5, 3, 0, 6,10.00,20.00,Wednesday
8,13.93996501632181
2,1, 5, 3, 0, 6,20.00,30.00,Wednesday
8,14.233214293896257
2,1, 5, 3, 0, 6,30.00,40.00,Wednesday
8,13.869348571340229
2,1, 5, 3, 0, 6,40.00,50.00,Wednesday
8,13.954510406180012
2,1, 5, 3, 0, 6,50.00,60.00,Wednesday
8,13.86976310782085
2,1, 5, 3, 0, 6, 0.00,60.00,Wednesday
95,21.075087153848665
135,21.323910967678665
175,21.487630864139648
215,24.85790410697558
255,24.928162580842345
295,25.167694743547256
2,1, 5, 3, 0, 7, 0.00,10.00,Wednesday
8,13.955390217184088
2,1, 5, 3, 0, 7,10.00,20.00,Wednesday
8,14.065362046439093
2,1, 5, 3, 0, 7,20.00,30.00,Wednesday
8,14.097405389686218
2,1, 5, 3, 0, 7,30.00,40.00,Wednesday
8,13.785365950146265
2,1, 5, 3, 0, 7,40.00,50.00,Wednesday
8,14.01278115470141
2,1, 5, 3, 0, 7,50.00,60.00,Wednesday
8,13.836161250573142
2,1, 5, 3, 0, 7, 0.00,60.00,Wednesday
95,20.82043063191588
135,21.063356146399348
175,21.22066574635939
215,24.46118742193808
255,24.539825367385985
295,24.75846900967335
2,1, 5, 3, 0, 8, 0.00,10.00,Wednesday
8,14.380147198337724
2,1, 5, 3, 0, 8,10.00,20.00,Wednesday
8,14.088219316544447
2,1, 5, 3, 0, 8,20.00,30.00,Wednesday
8,14.442644748223918
2,1, 5, 3, 0, 8,30.00,40.00,Wednesday
8,14.553554990943724
2,1, 5, 3, 0, 8,40.00,50.00,Wednesday
8,14.897405055141685
2,1, 5, 3, 0, 8,50.00,60.00,Wednesday
8,14.96768036440707
2,1, 5, 3, 0, 8, 0.00,60.00,Wednesday
95,21.179526085488097
135,21.435897468417257
175,21.41726799600882
215,24.517221227167086
255,24.611059022403713
295,24.80620996173529
2,1, 5, 3, 0, 9, 0.00,10.00,Wednesday
8,16.084534284863986
2,1, 5, 3, 0, 9,10.00,20.00,Wednesday
8,15.908940852667075
2,1, 5, 3, 0, 9,20.00,30.00,Wednesday
8,15.987729433634302
2,1, 5, 3, 0, 9,30.00,40.00,Wednesday
8,16.04598534602531
2,1, 5, 3, 0, 9,40.00,50.00,Wednesday
8,16.360640757929774
2,1, 5, 3, 0, 9,50.00,60.00,Wednesday
8,16.227055965306076
2,1, 5, 3, 0, 9, 0.00,60.00,Wednesday
95,22.14824499270455
135,22.33578225794773
175,22.34669612656244
215,25.32194704221213
255,25.432786937102077
295,25.61681361004213
2,1, 5, 3, 0,10, 0.00,10.00,Wednesday
8,16.425597228528735
2,1, 5, 3, 0,10,10.00,20.00,Wednesday
8,16.657649938044018
2,1, 5, 3, 0,10,20.00,30.00,Wednesday
8,16.734822756327124
2,1, 5, 3, 0,10,30.00,40.00,Wednesday
8,16.812284457403036
2,1, 5, 3, 0,10,40.00,50.00,Wednesday
8,17.005343351215278
2,1, 5, 3, 0,10,50.00,60.00,Wednesday
8,16.42598673345294
2,1, 5, 3, 0,10, 0.00,60.00,Wednesday
95,23.0966176942336
135,23.307457656428047
175,23.34132523456365
215,26.213246248177513
255,26.311652039063295
295,26.494357708085
2,1, 5, 3, 0,11, 0.00,10.00,Wednesday
8,16.269366096613419
2,1, 5, 3, 0,11,10.00,20.00,Wednesday
8,17.000714743449615
2,1, 5, 3, 0,11,20.00,30.00,Wednesday
8,16.8286651814921
2,1, 5, 3, 0,11,30.00,40.00,Wednesday
8,16.903409143334245
2,1, 5, 3, 0,11,40.00,50.00,Wednesday
8,16.567578919769458
2,1, 5, 3, 0,11,50.00,60.00,Wednesday
8,16.924488555173526
2,1, 5, 3, 0,11, 0.00,60.00,Wednesday
95,23.873325775967687
135,24.12630194602228
175,24.055238252064887
215,26.985116964285554
255,27.07713631448787
295,27.26541536743176
2,1, 5, 3, 0,12, 0.00,10.00,Wednesday
8,17.38436596010333
2,1, 5, 3, 0,12,10.00,20.00,Wednesday
8,16.587470454218768
2,1, 5, 3, 0,12,20.00,30.00,Wednesday
8,17.611475669832904
2,1, 5, 3, 0,12,30.00,40.00,Wednesday
8,17.014839776584755
2,1, 5, 3, 0,12,40.00,50.00,Wednesday
8,17.28403000859513
2,1, 5, 3, 0,12,50.00,60.00,Wednesday
8,17.47140027560002
2,1, 5, 3, 0,12, 0.00,60.00,Wednesday
95,24.733373442955665
135,24.975366066123489
175,24.823745697058287
215,28.00677564045779
255,28.09411826126872
295,28.281502892956593
2,1, 5, 3, 0,13, 0.00,10.00,Wednesday
8,18.105587514437983
2,1, 5, 3, 0,13,10.00,20.00,Wednesday
8,17.922266239540126
2,1, 5, 3, 0,13,20.00,30.00,Wednesday
8,17.538895725809714
2,1, 5, 3, 0,13,30.00,40.00,Wednesday
8,17.679645443270034
2,1, 5, 3, 0,13,40.00,50.00,Wednesday
8,17.25937754212511
2,1, 5, 3, 0,13,50.00,60.00,Wednesday
8,17.672567674795596
2,1, 5, 3, 0,13, 0.00,60.00,Wednesday
95,25.536251526907038
135,25.753132712504667
175,25.56458264790339
215,28.98676381234588
255,29.052704743224145
295,29.281268221523164
2,1, 5, 3, 0,14, 0.00,10.00,Wednesday
8,17.877908782680437
2,1, 5, 3, 0,14,10.00,20.00,Wednesday
8,18.27061245135181
2,1, 5, 3, 0,14,20.00,30.00,Wednesday
8,18.130556233782455
2,1, 5, 3, 0,14,30.00,40.00,Wednesday
8,17.738630972433709
2,1, 5, 3, 0,14,40.00,50.00,Wednesday
8,18.30269933203036
2,1, 5, 3, 0,14,50.00,60.00,Wednesday
8,18.780949371998383
2,1, 5, 3, 0,14, 0.00,60.00,Wednesday
95,26.128388500635429
135,26.325964458986396
175,26.13096007912235
215,29.696739802898678
255,29.76987728979493
295,30.000247600009776
2,1, 5, 3, 0,15, 0.00,10.00,Wednesday
8,17.87348433688188
2,1, 5, 3, 0,15,10.00,20.00,Wednesday
8,18.025890934353837
2,1, 5, 3, 0,15,20.00,30.00,Wednesday
8,18.298112645330776
2,1, 5, 3, 0,15,30.00,40.00,Wednesday
8,18.362939717583456
2,1, 5, 3, 0,15,40.00,50.00,Wednesday
8,18.09646727497999
2,1, 5, 3, 0,15,50.00,60.00,Wednesday
8,18.36633539667435
2,1, 5, 3, 0,15, 0.00,60.00,Wednesday
95,26.894028921204634
135,27.098480575638449
175,26.89456570430146
215,30.2997752153429
255,30.335282194005644
295,30.635338134802127
2,1, 5, 3, 0,16, 0.00,10.00,Wednesday
8,18.492763882764188
2,1, 5, 3, 0,16,10.00,20.00,Wednesday
8,18.567589048826084
2,1, 5, 3, 0,16,20.00,30.00,Wednesday
8,18.09413197715125
2,1, 5, 3, 0,16,30.00,40.00,Wednesday
8,18.091251873788019
2,1, 5, 3, 0,16,40.00,50.00,Wednesday
8,17.66630739206459
2,1, 5, 3, 0,16,50.00,60.00,Wednesday
8,17.5522794612126
2,1, 5, 3, 0,16, 0.00,60.00,Wednesday
95,27.413527856117267
135,27.631279326075075
175,27.439114525771463
215,30.80543088131131
255,30.840071109742654
295,31.17036680252758
2,1, 5, 3, 0,17, 0.00,10.00,Wednesday
8,18.67787861679875
2,1, 5, 3, 0,17,10.00,20.00,Wednesday
8,17.492589763076479
2,1, 5, 3, 0,17,20.00,30.00,Wednesday
8,15.973554247795642
2,1, 5, 3, 0,17,30.00,40.00,Wednesday
8,16.39863773818785
2,1, 5, 3, 0,17,40.00,50.00,Wednesday
8,15.975400546780245
2,1, 5, 3, 0,17,50.00,60.00,Wednesday
8,16.537080416494566
2,1, 5, 3, 0,17, 0.00,60.00,Wednesday
95,26.540216310553846
135,26.666970621518375
175,26.60242590105966
215,29.908287544042925
255,29.89482773916885
295,30.328719495021379
2,1, 5, 3, 0,18, 0.00,10.00,Wednesday
8,17.413568262814235
2,1, 5, 3, 0,18,10.00,20.00,Wednesday
8,17.877267495404259
2,1, 5, 3, 0,18,20.00,30.00,Wednesday
8,17.298168922012505
2,1, 5, 3, 0,18,30.00,40.00,Wednesday
8,17.238544881284559
2,1, 5, 3, 0,18,40.00,50.00,Wednesday
8,17.411209407413059
2,1, 5, 3, 0,18,50.00,60.00,Wednesday
8,18.26083701589071
2,1, 5, 3, 0,18, 0.00,60.00,Wednesday
95,25.61883132517777
135,25.696708125109344
175,25.721328894341217
215,29.21620531002348
255,29.228266250051026
295,29.634607055570198
2,1, 5, 3, 0,19, 0.00,10.00,Wednesday
8,18.106504349580669
2,1, 5, 3, 0,19,10.00,20.00,Wednesday
8,18.130963743935774
2,1, 5, 3, 0,19,20.00,30.00,Wednesday
8,18.260033075273005
2,1, 5, 3, 0,19,30.00,40.00,Wednesday
8,18.510726053614574
2,1, 5, 3, 0,19,40.00,50.00,Wednesday
8,18.35456664906671
2,1, 5, 3, 0,19,50.00,60.00,Wednesday
8,18.275901701402739
2,1, 5, 3, 0,19, 0.00,60.00,Wednesday
95,25.15093888978402
135,25.26490958060228
175,25.30972027824429
215,29.071553427383848
255,29.095556824937377
295,29.512247290027149
2,1, 5, 3, 0,20, 0.00,10.00,Wednesday
8,18.395843731157848
2,1, 5, 3, 0,20,10.00,20.00,Wednesday
8,18.546450455915826
2,1, 5, 3, 0,20,20.00,30.00,Wednesday
8,18.416212247884496
2,1, 5, 3, 0,20,30.00,40.00,Wednesday
8,18.524072153132818
2,1, 5, 3, 0,20,40.00,50.00,Wednesday
8,18.2809353978119
2,1, 5, 3, 0,20,50.00,60.00,Wednesday
8,18.03807785993693
2,1, 5, 3, 0,20, 0.00,60.00,Wednesday
95,24.489096324630596
135,24.633265709754569
175,24.71249007666128
215,28.698623768040137
255,28.72464377051688
295,29.13714386770725
2,1, 5, 3, 0,21, 0.00,10.00,Wednesday
8,17.611833175799846
2,1, 5, 3, 0,21,10.00,20.00,Wednesday
8,17.101574985785378
2,1, 5, 3, 0,21,20.00,30.00,Wednesday
8,17.134913313455639
2,1, 5, 3, 0,21,30.00,40.00,Wednesday
8,16.868117359066976
2,1, 5, 3, 0,21,40.00,50.00,Wednesday
8,17.215036465325757
2,1, 5, 3, 0,21,50.00,60.00,Wednesday
8,16.790569324118239
2,1, 5, 3, 0,21, 0.00,60.00,Wednesday
95,23.98652480717071
135,24.16664338423735
175,24.260107219800955
215,28.243937414386556
255,28.278153369275569
295,28.65005369100238
2,1, 5, 3, 0,22, 0.00,10.00,Wednesday
8,16.947512915093357
2,1, 5, 3, 0,22,10.00,20.00,Wednesday
8,17.165744374427069
2,1, 5, 3, 0,22,20.00,30.00,Wednesday
8,16.506303404613687
2,1, 5, 3, 0,22,30.00,40.00,Wednesday
8,16.50686240218422
2,1, 5, 3, 0,22,40.00,50.00,Wednesday
8,16.58631124954087
2,1, 5, 3, 0,22,50.00,60.00,Wednesday
8,16.611896233041589
2,1, 5, 3, 0,22, 0.00,60.00,Wednesday
95,23.61769532142428
135,23.83774751215603
175,23.933852996109015
215,27.913801113581326
255,27.956768989153735
295,28.299596714824419
2,1, 5, 3, 0,23, 0.00,10.00,Wednesday
8,16.16726578895277
2,1, 5, 3, 0,23,10.00,20.00,Wednesday
8,16.183332648534035
2,1, 5, 3, 0,23,20.00,30.00,Wednesday
8,16.482093079346816
2,1, 5, 3, 0,23,30.00,40.00,Wednesday
8,16.273597025284319
2,1, 5, 3, 0,23,40.00,50.00,Wednesday
8,15.907120528940938
2,1, 5, 3, 0,23,50.00,60.00,Wednesday
8,15.76525211529764
2,1, 5, 3, 0,23, 0.00,60.00,Wednesday
95,23.26809030992297
135,23.515660664172076
175,23.618270773609767
215,27.65775987086904
255,27.70943470406608
295,28.040114556338485
2,1, 5, 3, 0,24, 0.00,10.00,Wednesday
8,15.84181482484228
2,1, 5, 3, 0,24,10.00,20.00,Wednesday
8,15.652435718586
2,1, 5, 3, 0,24,20.00,30.00,Wednesday
8,15.843085857268405
2,1, 5, 3, 0,24,30.00,40.00,Wednesday
8,15.7283749704226
2,1, 5, 3, 0,24,40.00,50.00,Wednesday
8,15.536073378855662
2,1, 5, 3, 0,24,50.00,60.00,Wednesday
8,15.61280390914966
2,1, 5, 3, 0,24, 0.00,60.00,Wednesday
95,23.039591664085405
135,23.3009465679151
175,23.405216769120846
215,27.479555549744878
255,27.53678489690763
295,27.855772801574959
3,1, 5, 3, 0,Wednesday
96,46.284725119296108,36.57584329080678,16,30,54.896853022039909, 7,50
136,45.68022720656139,36.10258926959436,16,30,54.08423093404016, 7,50
176,45.58629465442352,36.51623539559828,16,40,53.588606290677137, 7,50
216,36.95963558745151,30.040223759178948,16,20,44.227580189723258, 7,50
256,36.82912173195832,29.968349097933467,16,20,44.02037218024839, 7,50
296,36.22491026439679,29.44447927038545,16,20,43.45676940064767, 7,50
2,2, 5, 4, 0, 1, 0.00,10.00,Thursday
8,16.032217382829
2,2, 5, 4, 0, 1,10.00,20.00,Thursday
8,15.537404076692644
2,2, 5, 4, 0, 1,20.00,30.00,Thursday
8,15.646594622879359
2,2, 5, 4, 0, 1,30.00,40.00,Thursday
8,15.779471805268847
2,2, 5, 4, 0, 1,40.00,50.00,Thursday
8,15.67554074784914
2,2, 5, 4, 0, 1,50.00,60.00,Thursday
8,15.491962996864214
2,2, 5, 4, 0, 1, 0.00,60.00,Thursday
95,22.800467863614345
135,23.0747727300572
175,23.181510216300798
215,27.24651078658734
255,27.30591078707559
295,27.62017034675067
2,2, 5, 4, 0, 2, 0.00,10.00,Thursday
8,15.492319967793233
2,2, 5, 4, 0, 2,10.00,20.00,Thursday
8,15.414190273976429
2,2, 5, 4, 0, 2,20.00,30.00,Thursday
8,15.675127511968523
2,2, 5, 4, 0, 2,30.00,40.00,Thursday
8,15.414366537942929
2,2, 5, 4, 0, 2,40.00,50.00,Thursday
8,15.414014307196691
2,2, 5, 4, 0, 2,50.00,60.00,Thursday
8,15.336888599377512
2,2, 5, 4, 0, 2, 0.00,60.00,Thursday
95,22.551529617836125
135,22.82522768992098
175,22.937865736882804
215,27.006559288039857
255,27.069249417002479
295,27.375163558730177
2,2, 5, 4, 0, 3, 0.00,10.00,Thursday
8,15.363728740322616
2,2, 5, 4, 0, 3,10.00,20.00,Thursday
8,15.230966590427649
2,2, 5, 4, 0, 3,20.00,30.00,Thursday
8,15.171309360293919
2,2, 5, 4, 0, 3,30.00,40.00,Thursday
8,15.186282568805315
2,2, 5, 4, 0, 3,40.00,50.00,Thursday
8,15.278816355868747
2,2, 5, 4, 0, 3,50.00,60.00,Thursday
8,15.04754967894262
2,2, 5, 4, 0, 3, 0.00,60.00,Thursday
95,22.298226753621255
135,22.568153382177216
175,22.68772335808907
215,26.65428952538997
255,26.715947494247386
295,27.011035053735126
2,2, 5, 4, 0, 4, 0.00,10.00,Thursday
8,15.053486454727198
2,2, 5, 4, 0, 4,10.00,20.00,Thursday
8,15.448778819927055
2,2, 5, 4, 0, 4,20.00,30.00,Thursday
8,15.042624816412147
2,2, 5, 4, 0, 4,30.00,40.00,Thursday
8,15.033556378098373
2,2, 5, 4, 0, 4,40.00,50.00,Thursday
8,14.485214102876816
2,2, 5, 4, 0, 4,50.00,60.00,Thursday
8,15.125544340606386
2,2, 5, 4, 0, 4, 0.00,60.00,Thursday
95,21.908724484078577
135,22.163623971270778
175,22.30324055615769
215,26.163368305805773
255,26.226718377506427
295,26.506779387722124
2,2, 5, 4, 0, 5, 0.00,10.00,Thursday
8,14.712674299416
2,2, 5, 4, 0, 5,10.00,20.00,Thursday
8,14.473728325941364
2,2, 5, 4, 0, 5,20.00,30.00,Thursday
8,14.644391307540774
2,2, 5, 4, 0, 5,30.00,40.00,Thursday
8,14.802655243139457
2,2, 5, 4, 0, 5,40.00,50.00,Thursday
8,14.62942904325202
2,2, 5, 4, 0, 5,50.00,60.00,Thursday
8,14.31036297063091
2,2, 5, 4, 0, 5, 0.00,60.00,Thursday
95,21.60855752930914
135,21.85514350792636
175,22.004592032190386
215,25.721940326677879
255,25.7875247513242
295,26.050371627880819
2,2, 5, 4, 0, 6, 0.00,10.00,Thursday
8,14.70143460791386
2,2, 5, 4, 0, 6,10.00,20.00,Thursday
8,14.520678818929957
2,2, 5, 4, 0, 6,20.00,30.00,Thursday
8,14.587681385750879
2,2, 5, 4, 0, 6,30.00,40.00,Thursday
8,14.398998401926674
2,2, 5, 4, 0, 6,40.00,50.00,Thursday
8,14.251397752162989
2,2, 5, 4, 0, 6,50.00,60.00,Thursday
8,14.437118175711309
2,2, 5, 4, 0, 6, 0.00,60.00,Thursday
95,21.316739490209725
135,21.560576842243298
175,21.717527577729169
215,25.248476586845447
255,25.317255236140388
295,25.561408575657837
2,2, 5, 4, 0, 7, 0.00,10.00,Thursday
8,14.369425938963945
2,2, 5, 4, 0, 7,10.00,20.00,Thursday
8,14.228605274294474
2,2, 5, 4, 0, 7,20.00,30.00,Thursday
8,14.619455314729312
2,2, 5, 4, 0, 7,30.00,40.00,Thursday
8,14.454058246816265
2,2, 5, 4, 0, 7,40.00,50.00,Thursday
8,14.311867834036607
2,2, 5, 4, 0, 7,50.00,60.00,Thursday
8,14.467293520970332
2,2, 5, 4, 0, 7, 0.00,60.00,Thursday
95,21.14530841750104
135,21.39038082949055
175,21.539684321080065
215,24.976403872703263
255,25.053698142432056
295,25.28063867512357
2,2, 5, 4, 0, 8, 0.00,10.00,Thursday
8,14.621156514024449
2,2, 5, 4, 0, 8,10.00,20.00,Thursday
8,14.715835117674433
2,2, 5, 4, 0, 8,20.00,30.00,Thursday
8,14.888777673767966
2,2, 5, 4, 0, 8,30.00,40.00,Thursday
8,15.217444822937905
2,2, 5, 4, 0, 8,40.00,50.00,Thursday
8,14.975377688993806
2,2, 5, 4, 0, 8,50.00,60.00,Thursday
8,15.032012770818904
2,2, 5, 4, 0, 8, 0.00,60.00,Thursday
95,21.448990729396586
135,21.719780283839794
175,21.742610806058037
215,24.99867398509437
255,25.08798603355734
295,25.295618282133306
2,2, 5, 4, 0, 9, 0.00,10.00,Thursday
8,15.50779511247116
2,2, 5, 4, 0, 9,10.00,20.00,Thursday
8,15.212751646814045
2,2, 5, 4, 0, 9,20.00,30.00,Thursday
8,15.386446401604453
2,2, 5, 4, 0, 9,30.00,40.00,Thursday
8,15.846111184880409
2,2, 5, 4, 0, 9,40.00,50.00,Thursday
8,15.960067121910031
2,2, 5, 4, 0, 9,50.00,60.00,Thursday
8,16.037740860325337
2,2, 5, 4, 0, 9, 0.00,60.00,Thursday
95,22.19774630689301
135,22.47326644249101
175,22.471963651119
215,25.53406032202274
255,25.635577506686628
295,25.82347122965089
2,2, 5, 4, 0,10, 0.00,10.00,Thursday
8,15.6936219861432
2,2, 5, 4, 0,10,10.00,20.00,Thursday
8,15.541343518867944
2,2, 5, 4, 0,10,20.00,30.00,Thursday
8,15.734543360773533
2,2, 5, 4, 0,10,30.00,40.00,Thursday
8,15.467208297897495
2,2, 5, 4, 0,10,40.00,50.00,Thursday
8,15.810667157403126
2,2, 5, 4, 0,10,50.00,60.00,Thursday
8,15.843905632386019
2,2, 5, 4, 0,10, 0.00,60.00,Thursday
95,22.837804047842373
135,23.137754166352236
175,23.116520020252748
215,25.909081617596184
255,26.000248243146797
295,26.207781735943376
2,2, 5, 4, 0,11, 0.00,10.00,Thursday
8,16.021217027985736
2,2, 5, 4, 0,11,10.00,20.00,Thursday
8,16.24597389807649
2,2, 5, 4, 0,11,20.00,30.00,Thursday
8,16.26568367102298
2,2, 5, 4, 0,11,30.00,40.00,Thursday
8,16.20722453968999
2,2, 5, 4, 0,11,40.00,50.00,Thursday
8,16.649035705115005
2,2, 5, 4, 0,11,50.00,60.00,Thursday
8,16.51182393092556
2,2, 5, 4, 0,11, 0.00,60.00,Thursday
95,23.677675441120738
135,23.9918913008417
175,23.89532996854639
215,26.521026566787869
255,26.615782859025985
295,26.788542095674545
2,2, 5, 4, 0,12, 0.00,10.00,Thursday
8,16.578901335697084
2,2, 5, 4, 0,12,10.00,20.00,Thursday
8,17.223993440697826
2,2, 5, 4, 0,12,20.00,30.00,Thursday
8,17.25681002169435
2,2, 5, 4, 0,12,30.00,40.00,Thursday
8,17.491656605887017
2,2, 5, 4, 0,12,40.00,50.00,Thursday
8,17.72649884713628
2,2, 5, 4, 0,12,50.00,60.00,Thursday
8,17.34859164291489
2,2, 5, 4, 0,12, 0.00,60.00,Thursday
95,24.762368493724769
135,25.072251378915554
175,24.88372986064996
215,27.838410887232354
255,27.950936388610818
295,28.094513800408568
2,2, 5, 4, 0,13, 0.00,10.00,Thursday
8,17.32460979665721
2,2, 5, 4, 0,13,10.00,20.00,Thursday
8,17.956240643112769
2,2, 5, 4, 0,13,20.00,30.00,Thursday
8,17.848842830515819
2,2, 5, 4, 0,13,30.00,40.00,Thursday
8,17.41590293983548
2,2, 5, 4, 0,13,40.00,50.00,Thursday
8,17.415700165794094
2,2, 5, 4, 0,13,50.00,60.00,Thursday
8,17.481572314505489
2,2, 5, 4, 0,13, 0.00,60.00,Thursday
95,25.778695341555126
135,26.067173340622195
175,25.811590590140967
215,28.8484947818892
255,28.939502821466804
295,29.114349172729793
2,2, 5, 4, 0,14, 0.00,10.00,Thursday
8,17.8906217219713
2,2, 5, 4, 0,14,10.00,20.00,Thursday
8,17.62978280349689
2,2, 5, 4, 0,14,20.00,30.00,Thursday
8,17.560055592751696
2,2, 5, 4, 0,14,30.00,40.00,Thursday
8,17.56036703686657
2,2, 5, 4, 0,14,40.00,50.00,Thursday
8,17.29737581796852
2,2, 5, 4, 0,14,50.00,60.00,Thursday
8,17.696865814916867
2,2, 5, 4, 0,14, 0.00,60.00,Thursday
95,26.56758164292387
135,26.840657955779866
175,26.55482545863593
215,29.438431296633099
255,29.510313818656944
295,29.69303764237272
2,2, 5, 4, 0,15, 0.00,10.00,Thursday
8,17.963224393929126
2,2, 5, 4, 0,15,10.00,20.00,Thursday
8,17.360323387142367
2,2, 5, 4, 0,15,20.00,30.00,Thursday
8,17.360007449440624
2,2, 5, 4, 0,15,30.00,40.00,Thursday
8,17.291551867297195
2,2, 5, 4, 0,15,40.00,50.00,Thursday
8,17.882736292496888
2,2, 5, 4, 0,15,50.00,60.00,Thursday
8,17.550487934070988
2,2, 5, 4, 0,15, 0.00,60.00,Thursday
95,26.967807322494669
135,27.200928320984987
175,26.922620691208036
215,29.80463345325006
255,29.860734528248597
295,30.0697610598052
2,2, 5, 4, 0,16, 0.00,10.00,Thursday
8,17.821607587729028
2,2, 5, 4, 0,16,10.00,20.00,Thursday
8,18.355015006467668
2,2, 5, 4, 0,16,20.00,30.00,Thursday
8,17.942487468971995
2,2, 5, 4, 0,16,30.00,40.00,Thursday
8,17.791352702201946
2,2, 5, 4, 0,16,40.00,50.00,Thursday
8,17.875748210589767
2,2, 5, 4, 0,16,50.00,60.00,Thursday
8,17.47815192912298
2,2, 5, 4, 0,16, 0.00,60.00,Thursday
95,27.371739056306639
135,27.597857807816046
175,27.324397140213553
215,30.500061610016706
255,30.557373527736009
295,30.769437195457227
2,2, 5, 4, 0,17, 0.00,10.00,Thursday
8,17.789097608287393
2,2, 5, 4, 0,17,10.00,20.00,Thursday
8,18.26972542866572
2,2, 5, 4, 0,17,20.00,30.00,Thursday
8,18.217559589691175
2,2, 5, 4, 0,17,30.00,40.00,Thursday
8,18.084052527532746
2,2, 5, 4, 0,17,40.00,50.00,Thursday
8,17.883847483434289
2,2, 5, 4, 0,17,50.00,60.00,Thursday
8,17.749646979910957
2,2, 5, 4, 0,17, 0.00,60.00,Thursday
95,27.32315955538751
135,27.54960698819777
175,27.293348665338529
215,30.62425980550057
255,30.672090098843456
295,30.902802204675056
2,2, 5, 4, 0,18, 0.00,10.00,Thursday
8,17.614398632643554
2,2, 5, 4, 0,18,10.00,20.00,Thursday
8,17.615040382447249
2,2, 5, 4, 0,18,20.00,30.00,Thursday
8,17.68175319241165
2,2, 5, 4, 0,18,30.00,40.00,Thursday
8,17.746547739138316
2,2, 5, 4, 0,18,40.00,50.00,Thursday
8,17.88155167307833
2,2, 5, 4, 0,18,50.00,60.00,Thursday
8,17.61396909836756
2,2, 5, 4, 0,18, 0.00,60.00,Thursday
95,26.94063225301835
135,27.118158621254655
175,26.916564528841165
215,30.48809530835997
255,30.53159443187759
295,30.771556554400495
2,2, 5, 4, 0,19, 0.00,10.00,Thursday
8,17.547643317228056
2,2, 5, 4, 0,19,10.00,20.00,Thursday
8,17.41514972730026
2,2, 5, 4, 0,19,20.00,30.00,Thursday
8,17.414452263359743
2,2, 5, 4, 0,19,30.00,40.00,Thursday
8,17.61168482171729
2,2, 5, 4, 0,19,40.00,50.00,Thursday
8,17.47800606934117
2,2, 5, 4, 0,19,50.00,60.00,Thursday
8,17.344123497364867
2,2, 5, 4, 0,19, 0.00,60.00,Thursday
95,26.4645369187067
135,26.62845036851333
175,26.469035708210244
215,30.33352336002146
255,30.371140663926299
295,30.626229239742945
2,2, 5, 4, 0,20, 0.00,10.00,Thursday
8,17.330680463983094
2,2, 5, 4, 0,20,10.00,20.00,Thursday
8,17.3066015135782
2,2, 5, 4, 0,20,20.00,30.00,Thursday
8,17.447124701941094
2,2, 5, 4, 0,20,30.00,40.00,Thursday
8,17.56407845936334
2,2, 5, 4, 0,20,40.00,50.00,Thursday
8,17.507447959826924
2,2, 5, 4, 0,20,50.00,60.00,Thursday
8,17.66050097641831
2,2, 5, 4, 0,20, 0.00,60.00,Thursday
95,25.683331415419507
135,25.84749064174999
175,25.742458170270266
215,29.859016946816813
255,29.897929617171998
295,30.17534142448018
2,2, 5, 4, 0,21, 0.00,10.00,Thursday
8,17.4410719211935
2,2, 5, 4, 0,21,10.00,20.00,Thursday
8,17.368294811205016
2,2, 5, 4, 0,21,20.00,30.00,Thursday
8,17.22263349128954
2,2, 5, 4, 0,21,30.00,40.00,Thursday
8,17.223436638622368
2,2, 5, 4, 0,21,40.00,50.00,Thursday
8,17.15034183460849
2,2, 5, 4, 0,21,50.00,60.00,Thursday
8,17.29035116040437
2,2, 5, 4, 0,21, 0.00,60.00,Thursday
95,25.022114428953967
135,25.213408948085517
175,25.138555090800315
215,29.450727849551627
255,29.49889309844336
295,29.76509175206516
2,2, 5, 4, 0,22, 0.00,10.00,Thursday
8,16.781062885381134
2,2, 5, 4, 0,22,10.00,20.00,Thursday
8,16.99414335031271
2,2, 5, 4, 0,22,20.00,30.00,Thursday
8,16.830673437877765
2,2, 5, 4, 0,22,30.00,40.00,Thursday
8,16.92114220541519
2,2, 5, 4, 0,22,40.00,50.00,Thursday
8,16.496429093634366
2,2, 5, 4, 0,22,50.00,60.00,Thursday
8,16.637030115747828
2,2, 5, 4, 0,22, 0.00,60.00,Thursday
95,24.534378577406299
135,24.768863661072826
175,24.707030839885446
215,29.080773802191599
255,29.132693481957813
295,29.37632466996948
2,2, 5, 4, 0,23, 0.00,10.00,Thursday
8,16.700451292377584
2,2, 5, 4, 0,23,10.00,20.00,Thursday
8,16.759403426097838
2,2, 5, 4, 0,23,20.00,30.00,Thursday
8,17.14125292925861
2,2, 5, 4, 0,23,30.00,40.00,Thursday
8,16.83522149787004
2,2, 5, 4, 0,23,40.00,50.00,Thursday
8,16.486251796648906
2,2, 5, 4, 0,23,50.00,60.00,Thursday
8,16.11001533083662
2,2, 5, 4, 0,23, 0.00,60.00,Thursday
95,24.080831191475928
135,24.354810242140066
175,24.3073093344474
215,28.769689498415447
255,28.82668713698337
295,29.06112483067396
2,2, 5, 4, 0,24, 0.00,10.00,Thursday
8,16.053155835485368
2,2, 5, 4, 0,24,10.00,20.00,Thursday
8,15.98004593077011
2,2, 5, 4, 0,24,20.00,30.00,Thursday
8,15.565020868493216
2,2, 5, 4, 0,24,30.00,40.00,Thursday
8,16.11251092042783
2,2, 5, 4, 0,24,40.00,50.00,Thursday
8,15.667218769440659
2,2, 5, 4, 0,24,50.00,60.00,Thursday
8,15.866711986239397
2,2, 5, 4, 0,24, 0.00,60.00,Thursday
95,23.72548393876386
135,24.022268987579606
175,23.986770361474247
215,28.4887291531853
255,28.55492040527035
295,28.768976079752279
3,2, 5, 4, 0,Thursday
96,45.058980050667319,36.470732371787018,16,40,53.675798470202689, 7,40
136,44.37744356234339,35.978544604095819,16,40,52.87810569216765, 7,40
176,44.48114289305491,36.575074944580297,16,40,52.37770633863389, 7,50
216,35.9940114168587,30.27519957513188,17,20,42.64453566267383, 8,20
256,35.84951442666195,30.145070269382346,17,20,42.436510076315439, 8,10
296,35.36563515472392,29.8238696265467,17,20,41.88940591952334, 8,20
2,3, 5, 5, 0, 1, 0.00,10.00,Friday
8,15.642718013028631
2,3, 5, 5, 0, 1,10.00,20.00,Friday
8,15.393623802559059
2,3, 5, 5, 0, 1,20.00,30.00,Friday
8,15.393623802559059
2,3, 5, 5, 0, 1,30.00,40.00,Friday
8,15.667744693980089
2,3, 5, 5, 0, 1,40.00,50.00,Friday
8,15.173384213633425
2,3, 5, 5, 0, 1,50.00,60.00,Friday
8,15.246245372224334
2,3, 5, 5, 0, 1, 0.00,60.00,Friday
95,23.404838323300749
135,23.72070477418004
175,23.69729253170094
215,28.164022157854718
255,28.237309258090744
295,28.432649991032119
2,3, 5, 5, 0, 2, 0.00,10.00,Friday
8,15.29716115634222
2,3, 5, 5, 0, 2,10.00,20.00,Friday
8,15.194290642877819
2,3, 5, 5, 0, 2,20.00,30.00,Friday
8,15.273236354022539
2,3, 5, 5, 0, 2,30.00,40.00,Friday
8,15.03008483623594
2,3, 5, 5, 0, 2,40.00,50.00,Friday
8,15.076385410391456
2,3, 5, 5, 0, 2,50.00,60.00,Friday
8,14.666114655258705
2,3, 5, 5, 0, 2, 0.00,60.00,Friday
95,23.080550981558245
135,23.406085203832736
175,23.395022675933885
215,27.725119871095357
255,27.797061822980145
295,27.982190852737536
2,3, 5, 5, 0, 3, 0.00,10.00,Friday
8,14.84214024838254
2,3, 5, 5, 0, 3,10.00,20.00,Friday
8,14.665945017831023
2,3, 5, 5, 0, 3,20.00,30.00,Friday
8,14.858213728505963
2,3, 5, 5, 0, 3,30.00,40.00,Friday
8,14.54269703030472
2,3, 5, 5, 0, 3,40.00,50.00,Friday
8,14.633569023291674
2,3, 5, 5, 0, 3,50.00,60.00,Friday
8,14.562130567139866
2,3, 5, 5, 0, 3, 0.00,60.00,Friday
95,22.668418653936798
135,22.98804982198979
175,22.999084474829205
215,27.126951817467448
255,27.204114064078668
295,27.36377377673378
2,3, 5, 5, 0, 4, 0.00,10.00,Friday
8,14.39566025317448
2,3, 5, 5, 0, 4,10.00,20.00,Friday
8,14.464128670844503
2,3, 5, 5, 0, 4,20.00,30.00,Friday
8,14.642691977420645
2,3, 5, 5, 0, 4,30.00,40.00,Friday
8,14.486747480138199
2,3, 5, 5, 0, 4,40.00,50.00,Friday
8,14.4823579044117
2,3, 5, 5, 0, 4,50.00,60.00,Friday
8,14.475270791468392
2,3, 5, 5, 0, 4, 0.00,60.00,Friday
95,22.30850090474014
135,22.62361464635059
175,22.652654896567609
215,26.683086428260088
255,26.768667793851745
295,26.910976031145453
2,3, 5, 5, 0, 5, 0.00,10.00,Friday
8,14.449165629404903
2,3, 5, 5, 0, 5,10.00,20.00,Friday
8,14.949940060751125
2,3, 5, 5, 0, 5,20.00,30.00,Friday
8,14.641937727270527