Program Version,EnergyPlus, Version 9.5.0-de239b2e5f, YMD=2021.12.09 19:05
1,5,Environment Title[],Latitude[deg],Longitude[deg],Time Zone[],Elevation[m]
2,8,Day of Simulation[],Month[],Day of Month[],DST Indicator[1=yes 0=no],Hour[],StartMinute[],EndMinute[],DayType
3,5,Cumulative Day of Simulation[],Month[],Day of Month[],DST Indicator[1=yes 0=no],DayType  ! When Daily Report Variables Requested
4,2,Cumulative Days of Simulation[],Month[]  ! When Monthly Report Variables Requested
5,1,Cumulative Days of Simulation[] ! When Run Period Report Variables Requested
6,1,Calendar Year of Simulation[] ! When Annual Report Variables Requested
148,1,THERMAL ZONE: JORGE,Zone Mean Air Temperature [C] !TimeStep
596,1,JORGE,Zone Thermal Comfort Fanger Model PMV [] !TimeStep
597,1,JORGE,Zone Thermal Comfort Fanger Model PPD [%] !TimeStep
End of Data Dictionary
1,RUN PERIOD 1,  18.85, -99.14,  -6.00,1280.00
2,1, 5, 3, 0, 1, 0.00,10.00,Wednesday
148,26.489590193605609
596,-1.1265047794493027
597,31.737371986750973
2,1, 5, 3, 0, 1,10.00,20.00,Wednesday
148,26.378002145456706
596,-1.1654182694077598
597,33.57508863030645
2,1, 5, 3, 0, 1,20.00,30.00,Wednesday
148,26.34419275887667
596,-1.1789718793384015
597,34.22627436338752
2,1, 5, 3, 0, 1,30.00,40.00,Wednesday
148,26.32646491708538
596,-1.1928266459747366
597,34.897634006373127
2,1, 5, 3, 0, 1,40.00,50.00,Wednesday
148,26.28212288006933
596,-1.2129597019802805
597,35.88319223987003
2,1, 5, 3, 0, 1,50.00,60.00,Wednesday
148,26.19420075525971
596,-1.246137077787753
597,37.53189609948529
2,1, 5, 3, 0, 2, 0.00,10.00,Wednesday
148,26.109665331806576
596,-1.2790565388841997
597,39.19607829723395
2,1, 5, 3, 0, 2,10.00,20.00,Wednesday
148,26.055315186547199
596,-1.3036455352322419
597,40.45609766424446
2,1, 5, 3, 0, 2,20.00,30.00,Wednesday
148,25.929498280278918
596,-1.3489699372111855
597,42.81284331871277
2,1, 5, 3, 0, 2,30.00,40.00,Wednesday
148,25.86884165729795
596,-1.37292749237353
597,44.07453100856673
2,1, 5, 3, 0, 2,40.00,50.00,Wednesday
148,25.845489282452918
596,-1.3841054659801087
597,44.66656750549248
2,1, 5, 3, 0, 2,50.00,60.00,Wednesday
148,25.861665378006888
596,-1.387248746628284
597,44.83341267674644
2,1, 5, 3, 0, 3, 0.00,10.00,Wednesday
148,25.8664574686712
596,-1.394208513999684
597,45.20338289907529
2,1, 5, 3, 0, 3,10.00,20.00,Wednesday
148,25.920615106041099
596,-1.3834272304337092
597,44.63058731152998
2,1, 5, 3, 0, 3,20.00,30.00,Wednesday
148,25.96342419972962
596,-1.3748362224244518
597,44.17548054798243
2,1, 5, 3, 0, 3,30.00,40.00,Wednesday
148,25.93698867958375
596,-1.3903239172298395
597,44.99679211496544
2,1, 5, 3, 0, 3,40.00,50.00,Wednesday
148,25.90934382049605
596,-1.402214634707771
597,45.62987640309724
2,1, 5, 3, 0, 3,50.00,60.00,Wednesday
148,25.875922287601339
596,-1.42059573212947
597,46.6124758779105
2,1, 5, 3, 0, 4, 0.00,10.00,Wednesday
148,25.844713224942234
596,-1.4369305622186895
597,47.48934548974295
2,1, 5, 3, 0, 4,10.00,20.00,Wednesday
148,25.795981672182209
596,-1.4558883141388635
597,48.51081432594179
2,1, 5, 3, 0, 4,20.00,30.00,Wednesday
148,25.77824223394976
596,-1.4717384018478346
597,49.36755569696959
2,1, 5, 3, 0, 4,30.00,40.00,Wednesday
148,25.637454844180988
596,-1.5241394551800563
597,52.21289290396428
2,1, 5, 3, 0, 4,40.00,50.00,Wednesday
148,25.434988667518334
596,-1.600483052630541
597,56.37159967099607
2,1, 5, 3, 0, 4,50.00,60.00,Wednesday
148,25.33014497422263
596,-1.6404791978138585
597,58.54400033922597
2,1, 5, 3, 0, 5, 0.00,10.00,Wednesday
148,25.285178319095125
596,-1.6661758271967189
597,59.93347975665098
2,1, 5, 3, 0, 5,10.00,20.00,Wednesday
148,25.36612620990293
596,-1.649577168498885
597,59.03663094152965
2,1, 5, 3, 0, 5,20.00,30.00,Wednesday
148,25.447404877005757
596,-1.6271222210333403
597,57.81959771019743
2,1, 5, 3, 0, 5,30.00,40.00,Wednesday
148,25.494162034923599
596,-1.6179886777146536
597,57.32356310946656
2,1, 5, 3, 0, 5,40.00,50.00,Wednesday
148,25.469803829401195
596,-1.6262477764521306
597,57.772129812993217
2,1, 5, 3, 0, 5,50.00,60.00,Wednesday
148,25.352902348996176
596,-1.6742823205307969
597,60.370469110792367
2,1, 5, 3, 0, 6, 0.00,10.00,Wednesday
148,25.24503611922962
596,-1.713885729123001
597,62.49372986124628
2,1, 5, 3, 0, 6,10.00,20.00,Wednesday
148,25.109826536180284
596,-1.7742088208414698
597,65.68003883679138
2,1, 5, 3, 0, 6,20.00,30.00,Wednesday
148,25.063502179304729
596,-1.7945044139140579
597,66.73586881428949
2,1, 5, 3, 0, 6,30.00,40.00,Wednesday
148,24.961025625635445
596,-1.844548519508329
597,69.29707551809178
2,1, 5, 3, 0, 6,40.00,50.00,Wednesday
148,24.860000124993506
596,-1.8814848285606146
597,71.14356264118644
2,1, 5, 3, 0, 6,50.00,60.00,Wednesday
148,24.78735636900778
596,-1.9133302460588582
597,72.70174966948145
2,1, 5, 3, 0, 7, 0.00,10.00,Wednesday
148,24.804662343782846
596,-1.911913352666583
597,72.63312855482568
2,1, 5, 3, 0, 7,10.00,20.00,Wednesday
148,24.901454827713324
596,-1.8818921554714943
597,71.1636975865696
2,1, 5, 3, 0, 7,20.00,30.00,Wednesday
148,24.9412790558983
596,-1.8772785632865908
597,70.93533899218572
2,1, 5, 3, 0, 7,30.00,40.00,Wednesday
148,24.7766569512786
596,-1.9380145502256317
597,73.88615586120835
2,1, 5, 3, 0, 7,40.00,50.00,Wednesday
148,24.687764655357904
596,-1.966141264928246
597,75.20913457663213
2,1, 5, 3, 0, 7,50.00,60.00,Wednesday
148,24.887078780494759
596,-1.8928816048974687
597,71.70496293444305
2,1, 5, 3, 0, 8, 0.00,10.00,Wednesday
148,25.03273753974827
596,-1.84119387009874
597,69.12743072684504
2,1, 5, 3, 0, 8,10.00,20.00,Wednesday
148,24.933423684606713
596,-1.8689776989471159
597,70.5228344455684
2,1, 5, 3, 0, 8,20.00,30.00,Wednesday
148,24.989577550950423
596,-1.8374039034174803
597,68.93540083651853
2,1, 5, 3, 0, 8,30.00,40.00,Wednesday
148,25.106361522824888
596,-1.7854685740298986
597,66.2669257917889
2,1, 5, 3, 0, 8,40.00,50.00,Wednesday
148,25.27124623582149
596,-1.7130425104157035
597,62.448748466123287
2,1, 5, 3, 0, 8,50.00,60.00,Wednesday
148,25.51250354046267
596,-1.6141119667389246
597,57.112876010711769
2,1, 5, 3, 0, 9, 0.00,10.00,Wednesday
148,25.718046268158607
596,-1.515337617128017
597,51.73392434730459
2,1, 5, 3, 0, 9,10.00,20.00,Wednesday
148,25.927377040314505
596,-1.4403598380558505
597,47.673832445583148
2,1, 5, 3, 0, 9,20.00,30.00,Wednesday
148,26.089321579678196
596,-1.3794458162880939
597,44.41952327094466
2,1, 5, 3, 0, 9,30.00,40.00,Wednesday
148,26.1898970218122
596,-1.3322974051875339
597,41.94107646893762
2,1, 5, 3, 0, 9,40.00,50.00,Wednesday
148,26.276026743646225
596,-1.2839786155358033
597,39.447181752225379
2,1, 5, 3, 0, 9,50.00,60.00,Wednesday
148,26.34566751723224
596,-1.2448699967821178
597,37.46838960206752
2,1, 5, 3, 0,10, 0.00,10.00,Wednesday
148,28.43369348934274
596,0.3396043107063367
597,7.39897077640336
2,1, 5, 3, 0,10,10.00,20.00,Wednesday
148,28.764652587070008
596,0.45513003314091429
597,9.323190690549268
2,1, 5, 3, 0,10,20.00,30.00,Wednesday
148,29.041589483416879
596,0.5233386730941524
597,10.728476583062787
2,1, 5, 3, 0,10,30.00,40.00,Wednesday
148,29.526826576063209
596,0.6502416855257516
597,13.879158374647972
2,1, 5, 3, 0,10,40.00,50.00,Wednesday
148,29.68299383053179
596,0.7094501433453236
597,15.588014588688325
2,1, 5, 3, 0,10,50.00,60.00,Wednesday
148,29.648292663805426
596,0.7196139851057462
597,15.896588933653945
2,1, 5, 3, 0,11, 0.00,10.00,Wednesday
148,29.614729280761446
596,0.7201648952606441
597,15.9134417128882
2,1, 5, 3, 0,11,10.00,20.00,Wednesday
148,29.741065561407035
596,0.771209054275977
597,17.531456829366577
2,1, 5, 3, 0,11,20.00,30.00,Wednesday
148,29.88908017330669
596,0.8257538912019468
597,19.383133403023395
2,1, 5, 3, 0,11,30.00,40.00,Wednesday
148,29.97172087682431
596,0.8622524101084764
597,20.692025732309518
2,1, 5, 3, 0,11,40.00,50.00,Wednesday
148,30.01457351231276
596,0.8877899434545288
597,21.640661940448355
2,1, 5, 3, 0,11,50.00,60.00,Wednesday
148,30.065407478408056
596,0.9097837622572098
597,22.479043267922266
2,1, 5, 3, 0,12, 0.00,10.00,Wednesday
148,30.163118571825718
596,0.9497253228644351
597,24.051382856398179
2,1, 5, 3, 0,12,10.00,20.00,Wednesday
148,30.203130705598605
596,0.9620208577436509
597,24.54814622207462
2,1, 5, 3, 0,12,20.00,30.00,Wednesday
148,30.32802158236605
596,1.0133466766462907
597,26.684988637616827
2,1, 5, 3, 0,12,30.00,40.00,Wednesday
148,30.387329524604295
596,1.0351393563992196
597,27.622394888259266
2,1, 5, 3, 0,12,40.00,50.00,Wednesday
148,30.489643931504859
596,1.0744720237903456
597,29.358123729904578
2,1, 5, 3, 0,12,50.00,60.00,Wednesday
148,30.58377942911554
596,1.1093527978104876
597,30.94294851123105
2,1, 5, 3, 0,13, 0.00,10.00,Wednesday
148,30.697820166077475
596,1.153399937255661
597,33.0023933794611
2,1, 5, 3, 0,13,10.00,20.00,Wednesday
148,30.746850881698597
596,1.1678943882679432
597,33.69363585311288
2,1, 5, 3, 0,13,20.00,30.00,Wednesday
148,30.7657985242718
596,1.1838203730393997
597,34.46056902032659
2,1, 5, 3, 0,13,30.00,40.00,Wednesday
148,30.82277412427574
596,1.2015552935668704
597,35.323491961502387
2,1, 5, 3, 0,13,40.00,50.00,Wednesday
148,30.878819708063479
596,1.2121446764621094
597,35.84307054965336
2,1, 5, 3, 0,13,50.00,60.00,Wednesday
148,30.865257946880808
596,1.2072104037672733
597,35.600568732748
2,1, 5, 3, 0,14, 0.00,10.00,Wednesday
148,30.795669795823753
596,1.2128679901076745
597,35.87867655912082
2,1, 5, 3, 0,14,10.00,20.00,Wednesday
148,30.862539347004114
596,1.2590009701585943
597,38.178980019455867
2,1, 5, 3, 0,14,20.00,30.00,Wednesday
148,30.968017566243405
596,1.2945956666058956
597,39.99074426590472
2,1, 5, 3, 0,14,30.00,40.00,Wednesday
148,31.028086452035784
596,1.3191449920336245
597,41.25726729702037
2,1, 5, 3, 0,14,40.00,50.00,Wednesday
148,31.164179884376084
596,1.368849856433179
597,43.859077436139987
2,1, 5, 3, 0,14,50.00,60.00,Wednesday
148,31.37413194899652
596,1.4250102235689748
597,46.849127797732538
2,1, 5, 3, 0,15, 0.00,10.00,Wednesday
148,31.201748156892387
596,1.3586936038698139
597,43.32369245039151
2,1, 5, 3, 0,15,10.00,20.00,Wednesday
148,31.179543279137115
596,1.3723016844169163
597,44.041446369999459
2,1, 5, 3, 0,15,20.00,30.00,Wednesday
148,31.321546655930466
596,1.4314539739741972
597,47.19499820536863
2,1, 5, 3, 0,15,30.00,40.00,Wednesday
148,31.399524852716725
596,1.4673211179919399
597,49.12856326403486
2,1, 5, 3, 0,15,40.00,50.00,Wednesday
148,31.467105449229824
596,1.4812616021977623
597,49.883341595448388
2,1, 5, 3, 0,15,50.00,60.00,Wednesday
148,31.534444217481828
596,1.5092623107388453
597,51.40351634488996
2,1, 5, 3, 0,16, 0.00,10.00,Wednesday
148,31.59505530381062
596,1.5414735952395234
597,53.156891435575698
2,1, 5, 3, 0,16,10.00,20.00,Wednesday
148,31.65055500433517
596,1.554515388735356
597,53.867524379881299
2,1, 5, 3, 0,16,20.00,30.00,Wednesday
148,31.674616541067978
596,1.5539731246634554
597,53.83797354828832
2,1, 5, 3, 0,16,30.00,40.00,Wednesday
148,31.647558053437146
596,1.5508154370915924
597,53.66589869935134
2,1, 5, 3, 0,16,40.00,50.00,Wednesday
148,31.69593411582415
596,1.5547296560511204
597,53.879200985198227
2,1, 5, 3, 0,16,50.00,60.00,Wednesday
148,31.522678948741246
596,1.4894969066541717
597,50.32992312299133
2,1, 5, 3, 0,17, 0.00,10.00,Wednesday
148,31.322246554109517
596,1.437935212902925
597,47.54337956098841
2,1, 5, 3, 0,17,10.00,20.00,Wednesday
148,31.15994042154946
596,1.3783118320912138
597,44.35945510691935
2,1, 5, 3, 0,17,20.00,30.00,Wednesday
148,30.991902461883997
596,1.3119922054707718
597,40.886896471072699
2,1, 5, 3, 0,17,30.00,40.00,Wednesday
148,30.7941432327611
596,1.2495248152823023
597,37.70189531918336
2,1, 5, 3, 0,17,40.00,50.00,Wednesday
148,30.68915166462111
596,1.211966375612044
597,35.83429573010268
2,1, 5, 3, 0,17,50.00,60.00,Wednesday
148,30.756995389349954
596,1.2340930375626039
597,36.929951820925577
2,1, 5, 3, 0,18, 0.00,10.00,Wednesday
148,30.71165661134298
596,1.2148181559938108
597,35.97474905146849
2,1, 5, 3, 0,18,10.00,20.00,Wednesday
148,30.637722183961079
596,1.1939384887890186
597,34.95175605735602
2,1, 5, 3, 0,18,20.00,30.00,Wednesday
148,30.604197180031315
596,1.1888945044341358
597,34.70651684252475
2,1, 5, 3, 0,18,30.00,40.00,Wednesday
148,30.619020810056158
596,1.1988049086606037
597,35.189066403203089
2,1, 5, 3, 0,18,40.00,50.00,Wednesday
148,30.67025467690262
596,1.218134701113957
597,36.13837857453275
2,1, 5, 3, 0,18,50.00,60.00,Wednesday
148,30.726230845039266
596,1.2372438550532686
597,37.087054531990457
2,1, 5, 3, 0,19, 0.00,10.00,Wednesday
148,29.297651742033439
596,0.10057007099137143
597,5.209466471634215
2,1, 5, 3, 0,19,10.00,20.00,Wednesday
148,28.923723301392817
596,-0.022853284486334194
597,5.010811557808495
2,1, 5, 3, 0,19,20.00,30.00,Wednesday
148,28.67651977557146
596,-0.10493161628034753
597,5.228037882024751
2,1, 5, 3, 0,19,30.00,40.00,Wednesday
148,28.182221043040046
596,-0.2324297762627687
597,6.120946397647572
2,1, 5, 3, 0,19,40.00,50.00,Wednesday
148,27.917336482398367
596,-0.3147383048470648
597,7.059207875770284
2,1, 5, 3, 0,19,50.00,60.00,Wednesday
148,27.842116563863873
596,-0.3651352459113321
597,7.775147533493268
2,1, 5, 3, 0,20, 0.00,10.00,Wednesday
148,27.82397522681878
596,-0.3883902240344986
597,8.141957506641731
2,1, 5, 3, 0,20,10.00,20.00,Wednesday
148,27.782639556831929
596,-0.41560401903118168
597,8.600556272650664
2,1, 5, 3, 0,20,20.00,30.00,Wednesday
148,27.71473953610354
596,-0.44658586427086757
597,9.161294908777422
2,1, 5, 3, 0,20,30.00,40.00,Wednesday
148,27.628825024869973
596,-0.4790242405687816
597,9.79262788544223
2,1, 5, 3, 0,20,40.00,50.00,Wednesday
148,27.501862424947395
596,-0.5258636438186175
597,10.784356813444063
2,1, 5, 3, 0,20,50.00,60.00,Wednesday
148,27.397685922369996
596,-0.5732833120692618
597,11.885108115443359
2,1, 5, 3, 0,21, 0.00,10.00,Wednesday
148,27.328565680729285
596,-0.6054793882796489
597,12.68806326827044
2,1, 5, 3, 0,21,10.00,20.00,Wednesday
148,27.270170735041817
596,-0.6300365993496614
597,13.330751050590465
2,1, 5, 3, 0,21,20.00,30.00,Wednesday
148,27.168187216259857
596,-0.6774221262915138
597,14.644802638798652
2,1, 5, 3, 0,21,30.00,40.00,Wednesday
148,27.007572634128854
596,-0.7360218766262865
597,16.40411589562767
2,1, 5, 3, 0,21,40.00,50.00,Wednesday
148,27.00643356331142
596,-0.7528899257468611
597,16.937928057234957
2,1, 5, 3, 0,21,50.00,60.00,Wednesday
148,26.94970580965139
596,-0.7910017602362172
597,18.188807337633379
2,1, 5, 3, 0,22, 0.00,10.00,Wednesday
148,26.948502908600785
596,-0.8010495909471916
597,18.52887871628677
2,1, 5, 3, 0,22,10.00,20.00,Wednesday
148,26.924827368406743
596,-0.8196556702875438
597,19.169872719826459
2,1, 5, 3, 0,22,20.00,30.00,Wednesday
148,26.801474349038594
596,-0.8758982679921995
597,21.195587447860065
2,1, 5, 3, 0,22,30.00,40.00,Wednesday
148,26.714506882480835
596,-0.9109538218327238
597,22.524194482627764
2,1, 5, 3, 0,22,40.00,50.00,Wednesday
148,26.72563493390146
596,-0.9143360370986828
597,22.655020967656087
2,1, 5, 3, 0,22,50.00,60.00,Wednesday
148,26.723298509474309
596,-0.9256319678887852
597,23.095292321195644
2,1, 5, 3, 0,23, 0.00,10.00,Wednesday
148,26.77778391377077
596,-0.9202539980154696
597,22.885040675796433
2,1, 5, 3, 0,23,10.00,20.00,Wednesday
148,26.793306827832898
596,-0.910137088889309
597,22.492671894874534
2,1, 5, 3, 0,23,20.00,30.00,Wednesday
148,26.787490096719098
596,-0.9210708098818992
597,22.916899180871697
2,1, 5, 3, 0,23,30.00,40.00,Wednesday
148,26.801654551336918
596,-0.9337184719456616
597,23.413612812319486
2,1, 5, 3, 0,23,40.00,50.00,Wednesday
148,26.7987331431421
596,-0.9398654478850277
597,23.65732859822556
2,1, 5, 3, 0,23,50.00,60.00,Wednesday
148,26.794666162337636
596,-0.9408298157569396
597,23.695700166352624
2,1, 5, 3, 0,24, 0.00,10.00,Wednesday
148,26.81886166467206
596,-0.9371510435533469
597,23.549522442966265
2,1, 5, 3, 0,24,10.00,20.00,Wednesday
148,26.837605784754176
596,-0.9393847053491531
597,23.638213950557586
2,1, 5, 3, 0,24,20.00,30.00,Wednesday
148,26.806962139548867
596,-0.9547212184735521
597,24.252510672674405
2,1, 5, 3, 0,24,30.00,40.00,Wednesday
148,26.78379376718479
596,-0.966619812919104
597,24.735474102611947
2,1, 5, 3, 0,24,40.00,50.00,Wednesday
148,26.73393734141903
596,-0.9879304124235667
597,25.614221334459715
2,1, 5, 3, 0,24,50.00,60.00,Wednesday
148,26.70896173930892
596,-1.001629916105507
597,26.188329504931759
2,2, 5, 4, 0, 1, 0.00,10.00,Thursday
148,26.764008627313826
596,-0.9963258929092767
597,25.965204794478085
2,2, 5, 4, 0, 1,10.00,20.00,Thursday
148,26.7837413089372
596,-1.0027363233384939
597,26.235007285238795
2,2, 5, 4, 0, 1,20.00,30.00,Thursday
148,26.728824074331035
596,-1.0238779699023702
597,27.13578937224287
2,2, 5, 4, 0, 1,30.00,40.00,Thursday
148,26.620199835935723
596,-1.0646900464353578
597,28.92127412001622
2,2, 5, 4, 0, 1,40.00,50.00,Thursday
148,26.57769663538511
596,-1.0809094335013788
597,29.647446947462784
2,2, 5, 4, 0, 1,50.00,60.00,Thursday
148,26.589173183800328
596,-1.082970627372555
597,29.740391347653515
2,2, 5, 4, 0, 2, 0.00,10.00,Thursday
148,26.62357675082229
596,-1.078778452868974
597,29.551511475369439
2,2, 5, 4, 0, 2,10.00,20.00,Thursday
148,26.617891640194594
596,-1.0856284567745556
597,29.860457648545677
2,2, 5, 4, 0, 2,20.00,30.00,Thursday
148,26.612667999369294
596,-1.090047762042838
597,30.060639684872144
2,2, 5, 4, 0, 2,30.00,40.00,Thursday
148,26.58304219441786
596,-1.1042355270706879
597,30.707837494495239
2,2, 5, 4, 0, 2,40.00,50.00,Thursday
148,26.543268197360577
596,-1.1200654473389107
597,31.43797920544897
2,2, 5, 4, 0, 2,50.00,60.00,Thursday
148,26.509711650827076
596,-1.13649726884054
597,32.204653919875699
2,2, 5, 4, 0, 3, 0.00,10.00,Thursday
148,26.4981249137044
596,-1.1487706382803949
597,32.78300515626911
2,2, 5, 4, 0, 3,10.00,20.00,Thursday
148,26.43004520182776
596,-1.1798537310389857
597,34.26883586889832
2,2, 5, 4, 0, 3,20.00,30.00,Thursday
148,26.404186518795425
596,-1.1974423074968448
597,35.122549998204508
2,2, 5, 4, 0, 3,30.00,40.00,Thursday
148,26.3113845765628
596,-1.233403552833586
597,36.89560885613218
2,2, 5, 4, 0, 3,40.00,50.00,Thursday
148,26.225355791913708
596,-1.2648936748633529
597,38.47679643915323
2,2, 5, 4, 0, 3,50.00,60.00,Thursday
148,26.212989263100864
596,-1.2812377721906854
597,39.307284854068708
2,2, 5, 4, 0, 4, 0.00,10.00,Thursday
148,26.158128195191524
596,-1.3096236533817974
597,40.76449388081696
2,2, 5, 4, 0, 4,10.00,20.00,Thursday
148,26.078420738115093
596,-1.3432343467440449
597,42.5123386243379
2,2, 5, 4, 0, 4,20.00,30.00,Thursday
148,26.0245976854237
596,-1.3688348311146286
597,43.85828405371099
2,2, 5, 4, 0, 4,30.00,40.00,Thursday
148,25.949306244603894
596,-1.4001799164009437
597,45.52139589250973
2,2, 5, 4, 0, 4,40.00,50.00,Thursday
148,25.888808960869853
596,-1.4232172719656509
597,46.75298159115284
2,2, 5, 4, 0, 4,50.00,60.00,Thursday
148,25.88463518399854
596,-1.427291347827466
597,46.97150989614589
2,2, 5, 4, 0, 5, 0.00,10.00,Thursday
148,25.83122926174599
596,-1.4559928365404667
597,48.51645641115536
2,2, 5, 4, 0, 5,10.00,20.00,Thursday
148,25.76361229953343
596,-1.4846641342889409
597,50.067794515608799
2,2, 5, 4, 0, 5,20.00,30.00,Thursday
148,25.6945527864812
596,-1.5056794888701855
597,51.208746317413069
2,2, 5, 4, 0, 5,30.00,40.00,Thursday
148,25.66906568136252
596,-1.5181320722378764
597,51.88595669224204
2,2, 5, 4, 0, 5,40.00,50.00,Thursday
148,25.654503474076038
596,-1.5348825769339838
597,52.79785969221743
2,2, 5, 4, 0, 5,50.00,60.00,Thursday
148,25.610070675994728
596,-1.5578996489979274
597,54.05195386569493
2,2, 5, 4, 0, 6, 0.00,10.00,Thursday
148,25.60356659243187
596,-1.5615290949058316
597,54.24974823699117
2,2, 5, 4, 0, 6,10.00,20.00,Thursday
148,25.457089704810309
596,-1.6219686266321017
597,57.53977278012552
2,2, 5, 4, 0, 6,20.00,30.00,Thursday
148,25.40511571983975
596,-1.645274704413455
597,58.80374999919893
2,2, 5, 4, 0, 6,30.00,40.00,Thursday
148,25.239231525104186
596,-1.711275142341318
597,62.354433684122529
2,2, 5, 4, 0, 6,40.00,50.00,Thursday
148,25.096406794616358
596,-1.762688053294039
597,65.07677917860295
2,2, 5, 4, 0, 6,50.00,60.00,Thursday
148,25.099220191019549
596,-1.759759290368498
597,64.92299220158739
2,2, 5, 4, 0, 7, 0.00,10.00,Thursday
148,25.22664779177849
596,-1.722904311305389
597,62.97413790672318
2,2, 5, 4, 0, 7,10.00,20.00,Thursday
148,25.35876671817664
596,-1.6829263976101554
597,60.83562275709189
2,2, 5, 4, 0, 7,20.00,30.00,Thursday
148,25.27433539489931
596,-1.7117983200627747
597,62.382357702833768
2,2, 5, 4, 0, 7,30.00,40.00,Thursday
148,25.331303694258403
596,-1.6989964055134089
597,61.69792788830259
2,2, 5, 4, 0, 7,40.00,50.00,Thursday
148,25.402205602017785
596,-1.6717388068691588
597,60.23343522220185
2,2, 5, 4, 0, 7,50.00,60.00,Thursday
148,25.452498176247738
596,-1.6520578089020386
597,59.17082812413887
2,2, 5, 4, 0, 8, 0.00,10.00,Thursday
148,25.481922610469739
596,-1.639388686685169
597,58.48490692948863
2,2, 5, 4, 0, 8,10.00,20.00,Thursday
148,25.482940472726996
596,-1.6318855937488384
597,58.078080668183648
2,2, 5, 4, 0, 8,20.00,30.00,Thursday
148,25.462607929786868
596,-1.6304970995429434
597,58.00275040352229
2,2, 5, 4, 0, 8,30.00,40.00,Thursday
148,25.511173915770386
596,-1.6003111861125497
597,56.36224670417506
2,2, 5, 4, 0, 8,40.00,50.00,Thursday
148,25.641439973132344
596,-1.5401289497774813
597,53.08363735041164
2,2, 5, 4, 0, 8,50.00,60.00,Thursday
148,25.832227635883308
596,-1.4646734093463728
597,48.98539303940258
2,2, 5, 4, 0, 9, 0.00,10.00,Thursday
148,26.00155604822254
596,-1.3997013307287483
597,45.49588895012837
2,2, 5, 4, 0, 9,10.00,20.00,Thursday
148,26.105538201902556
596,-1.3668793735670453
597,43.75506306044509
2,2, 5, 4, 0, 9,20.00,30.00,Thursday
148,26.217434290532429
596,-1.305019825535904
597,40.52692456965359
2,2, 5, 4, 0, 9,30.00,40.00,Thursday
148,26.34487217381554
596,-1.2472601413622249
597,37.588219317276578
2,2, 5, 4, 0, 9,40.00,50.00,Thursday
148,26.471637671689324
596,-1.1859411830911198
597,34.56327379197862
2,2, 5, 4, 0, 9,50.00,60.00,Thursday
148,26.54226982107646
596,-1.164125797502943
597,33.5132849035609
2,2, 5, 4, 0,10, 0.00,10.00,Thursday
148,28.479470742846734
596,0.34146167027283888
597,7.425402493135081
2,2, 5, 4, 0,10,10.00,20.00,Thursday
148,28.689013470683429
596,0.4216230452908637
597,8.706270159880305
2,2, 5, 4, 0,10,20.00,30.00,Thursday
148,28.985414914613409
596,0.49853507538116467
597,10.194209285596856
2,2, 5, 4, 0,10,30.00,40.00,Thursday
148,29.419045152910699
596,0.6066331570798943
597,12.71767267859272
2,2, 5, 4, 0,10,40.00,50.00,Thursday
148,29.567006285524096
596,0.6644092556902351
597,14.274251197884894
2,2, 5, 4, 0,10,50.00,60.00,Thursday
148,29.613381111111705
596,0.7002090606560424
597,15.311321124941145
2,2, 5, 4, 0,11, 0.00,10.00,Thursday
148,29.68090288346535
596,0.7356984117951883
597,16.393998700337577
2,2, 5, 4, 0,11,10.00,20.00,Thursday
148,29.762230020211587
596,0.7717389636215353
597,17.548838798375287
2,2, 5, 4, 0,11,20.00,30.00,Thursday
148,29.8336407317669
596,0.8003512433425369
597,18.50510472147947
2,2, 5, 4, 0,11,30.00,40.00,Thursday
148,29.954443579978475
596,0.847982611622101
597,20.17368109867607
2,2, 5, 4, 0,11,40.00,50.00,Thursday
148,30.052162813413454
596,0.8794289060636561
597,21.327124541745577
2,2, 5, 4, 0,11,50.00,60.00,Thursday
148,30.149355516383289
596,0.9239920184963522
597,23.031055616937878
2,2, 5, 4, 0,12, 0.00,10.00,Thursday
148,30.294105518557907
596,0.981762756808254
597,25.358094435108414
2,2, 5, 4, 0,12,10.00,20.00,Thursday
148,30.419646241348596
596,1.021875800328947
597,27.049766722437398
2,2, 5, 4, 0,12,20.00,30.00,Thursday
148,30.52941162019743
596,1.0674727023524829
597,29.045199134091065
2,2, 5, 4, 0,12,30.00,40.00,Thursday
148,30.66698893793164
596,1.1115129492753889
597,31.042460351343764
2,2, 5, 4, 0,12,40.00,50.00,Thursday
148,30.694968856022304
596,1.1259032967373284
597,31.709348647125368
2,2, 5, 4, 0,12,50.00,60.00,Thursday
148,30.695778895526268
596,1.128470197138355
597,31.82902430785792
2,2, 5, 4, 0,13, 0.00,10.00,Thursday
148,30.786951148525998
596,1.1678397774404406
597,33.691019262458357
2,2, 5, 4, 0,13,10.00,20.00,Thursday
148,30.935347155484373
596,1.2274362587713348
597,36.59891527039154
2,2, 5, 4, 0,13,20.00,30.00,Thursday
148,31.00668041675921
596,1.2500691861042506
597,37.72923993026831
2,2, 5, 4, 0,13,30.00,40.00,Thursday
148,31.066005379834974
596,1.2714052563297887
597,38.80689097880324
2,2, 5, 4, 0,13,40.00,50.00,Thursday
148,31.11395416825537
596,1.2880424257895123
597,39.65492910918641
2,2, 5, 4, 0,13,50.00,60.00,Thursday
148,31.199668885545269
596,1.3203530449033219
597,41.31992675489691
2,2, 5, 4, 0,14, 0.00,10.00,Thursday
148,31.217563331528504
596,1.3409151419757315
597,42.39100649265522
2,2, 5, 4, 0,14,10.00,20.00,Thursday
148,31.239916728172124
596,1.3461917456439306
597,42.66720787647984
2,2, 5, 4, 0,14,20.00,30.00,Thursday
148,31.24404392097912
596,1.3456414947691454
597,42.638380465705058
2,2, 5, 4, 0,14,30.00,40.00,Thursday
148,31.231217031154164
596,1.3440342514018216
597,42.554210570151628
2,2, 5, 4, 0,14,40.00,50.00,Thursday
148,31.233979133898829
596,1.338682629493835
597,42.27430790246973
2,2, 5, 4, 0,14,50.00,60.00,Thursday
148,31.324076117722979
596,1.391944059545137
597,45.08292664368654
2,2, 5, 4, 0,15, 0.00,10.00,Thursday
148,31.45585806147867
596,1.4289268076905278
597,47.05929151390709
2,2, 5, 4, 0,15,10.00,20.00,Thursday
148,31.430854157889088
596,1.421627723099152
597,46.667776671969829
2,2, 5, 4, 0,15,20.00,30.00,Thursday
148,31.436192813714244
596,1.4147386040519484
597,46.29887472926557
2,2, 5, 4, 0,15,30.00,40.00,Thursday
148,31.401532331497596
596,1.398057670428665
597,45.408313141646157
2,2, 5, 4, 0,15,40.00,50.00,Thursday
148,31.375029267159229
596,1.4003496972764623
597,45.530445421694157
2,2, 5, 4, 0,15,50.00,60.00,Thursday
148,31.45194806906798
596,1.4269529346260029
597,46.9533500025304
2,2, 5, 4, 0,16, 0.00,10.00,Thursday
148,31.585987934164249
596,1.4735225167739555
597,49.46412990400441
2,2, 5, 4, 0,16,10.00,20.00,Thursday
148,31.692046619754636
596,1.5141611242180205
597,51.6699272096348
2,2, 5, 4, 0,16,20.00,30.00,Thursday
148,31.768139353895138
596,1.5341421871558497
597,52.757534721366088
2,2, 5, 4, 0,16,30.00,40.00,Thursday
148,31.79678834501419
596,1.5447663865205624
597,53.336290877819077
2,2, 5, 4, 0,16,40.00,50.00,Thursday
148,31.79088093853163
596,1.5279591259562114
597,52.420835303706777
2,2, 5, 4, 0,16,50.00,60.00,Thursday
148,31.753767647468263
596,1.5060489964267859
597,51.228830529348268
2,2, 5, 4, 0,17, 0.00,10.00,Thursday
148,31.6966781639288
596,1.5111163516507953
597,51.50433095943672
2,2, 5, 4, 0,17,10.00,20.00,Thursday
148,31.735626872375968
596,1.5224463419936024
597,52.12073599506791
2,2, 5, 4, 0,17,20.00,30.00,Thursday
148,31.685035658877074
596,1.5002047224966069
597,50.911256949690457
2,2, 5, 4, 0,17,30.00,40.00,Thursday
148,31.728595655071275
596,1.5146771196125415
597,51.69799482571425
2,2, 5, 4, 0,17,40.00,50.00,Thursday
148,31.66336755304372
596,1.4898923345872666
597,50.351378141206989
2,2, 5, 4, 0,17,50.00,60.00,Thursday
148,31.68583966859628
596,1.4731719394854475
597,49.445151071278399
2,2, 5, 4, 0,18, 0.00,10.00,Thursday
148,31.56477719459989
596,1.4395351271688535
597,47.629452853984279
2,2, 5, 4, 0,18,10.00,20.00,Thursday
148,31.572119264484308
596,1.441588030998267
597,47.73993835577036
2,2, 5, 4, 0,18,20.00,30.00,Thursday
148,31.58199286422161
596,1.4517594241829444
597,48.288024547588019
2,2, 5, 4, 0,18,30.00,40.00,Thursday
148,31.64362027320309
596,1.4697875368805827
597,49.261985703944677
2,2, 5, 4, 0,18,40.00,50.00,Thursday
148,31.673738571505724
596,1.4770066037011947
597,49.65279823700205
2,2, 5, 4, 0,18,50.00,60.00,Thursday
148,31.615941608032075
596,1.4500241631310767
597,48.194443187716377
2,2, 5, 4, 0,19, 0.00,10.00,Thursday
148,30.12353231433528
596,0.38266084304458505
597,8.049443102132586
2,2, 5, 4, 0,19,10.00,20.00,Thursday
148,29.690744610348469
596,0.24580638237289594
597,6.254018757902841
2,2, 5, 4, 0,19,20.00,30.00,Thursday
148,29.521482000968953
596,0.20158436554914448
597,5.842691044586644
2,2, 5, 4, 0,19,30.00,40.00,Thursday
148,29.040641138618989
596,0.06664058627601048
597,5.091948548488986
2,2, 5, 4, 0,19,40.00,50.00,Thursday
148,28.8627417694909
596,0.00035446101667252624
597,5.000002600864903
2,2, 5, 4, 0,19,50.00,60.00,Thursday
148,28.794106392915184
596,-0.05030895010294199
597,5.0523987171241349
2,2, 5, 4, 0,20, 0.00,10.00,Thursday
148,28.727379834888528
596,-0.0896454806845739
597,5.166415469208076
2,2, 5, 4, 0,20,10.00,20.00,Thursday
148,28.61892129612307
596,-0.1382053500393512
597,5.395730045539082
2,2, 5, 4, 0,20,20.00,30.00,Thursday
148,28.5013732543819
596,-0.18766836700639953
597,5.7301899919360299
2,2, 5, 4, 0,20,30.00,40.00,Thursday
148,28.41483522471244
596,-0.226090562124358
597,6.060505645686831
2,2, 5, 4, 0,20,40.00,50.00,Thursday
148,28.349458108900369
596,-0.25867065695845317
597,6.389086174441914
2,2, 5, 4, 0,20,50.00,60.00,Thursday
148,28.285250312514866
596,-0.28340288339267857
597,6.668331401105789
2,2, 5, 4, 0,21, 0.00,10.00,Thursday
148,28.23158232947984
596,-0.30685598310621939
597,6.956975629497379
2,2, 5, 4, 0,21,10.00,20.00,Thursday
148,28.200610544506618
596,-0.3225616235657143
597,7.163276711031742
2,2, 5, 4, 0,21,20.00,30.00,Thursday
148,28.16959441713889
596,-0.343287658449782
597,7.451530649028456
2,2, 5, 4, 0,21,30.00,40.00,Thursday
148,28.139338971018569
596,-0.3548972953331224
597,7.620969190872927
2,2, 5, 4, 0,21,40.00,50.00,Thursday
148,28.12127472983997
596,-0.3673970174639659
597,7.809810772470755
2,2, 5, 4, 0,21,50.00,60.00,Thursday
148,28.080748706926337
596,-0.39010373005693957
597,8.16989851826898
2,2, 5, 4, 0,22, 0.00,10.00,Thursday
148,28.035922005125764
596,-0.41220870215588686
597,8.541608391337235
2,2, 5, 4, 0,22,10.00,20.00,Thursday
148,27.989096709220889
596,-0.42872936679908799
597,8.833080701069918
2,2, 5, 4, 0,22,20.00,30.00,Thursday
148,27.907428462891656
596,-0.46645492998708479
597,9.542618504628934
2,2, 5, 4, 0,22,30.00,40.00,Thursday
148,27.874914179161917
596,-0.4707753784246553
597,9.62778606232898
2,2, 5, 4, 0,22,40.00,50.00,Thursday
148,27.87351879521418