Program Version,EnergyPlus, Version 9.5.0-de239b2e5f, YMD=2021.12.08 13:58
1,5,Environment Title[],Latitude[deg],Longitude[deg],Time Zone[],Elevation[m]
2,8,Day of Simulation[],Month[],Day of Month[],DST Indicator[1=yes 0=no],Hour[],StartMinute[],EndMinute[],DayType
3,5,Cumulative Day of Simulation[],Month[],Day of Month[],DST Indicator[1=yes 0=no],DayType  ! When Daily Report Variables Requested
4,2,Cumulative Days of Simulation[],Month[]  ! When Monthly Report Variables Requested
5,1,Cumulative Days of Simulation[] ! When Run Period Report Variables Requested
6,1,Calendar Year of Simulation[] ! When Annual Report Variables Requested
7,1,Environment,Site Outdoor Air Drybulb Temperature [C] !TimeStep
8,1,THERMAL ZONE: JORGE,Zone Mean Air Temperature [C] !TimeStep
End of Data Dictionary
1,RUN PERIOD 1,  18.85, -99.14,  -6.00,1280.00
2,1, 5, 3, 0, 1, 0.00,10.00,Wednesday
7,23.0
8,23.78979183716976
2,1, 5, 3, 0, 1,10.00,20.00,Wednesday
7,23.0
8,23.61892478079478
2,1, 5, 3, 0, 1,20.00,30.00,Wednesday
7,23.0
8,24.060549083799374
2,1, 5, 3, 0, 1,30.00,40.00,Wednesday
7,22.8
8,23.925590497990894
2,1, 5, 3, 0, 1,40.00,50.00,Wednesday
7,22.7
8,23.64643356237267
2,1, 5, 3, 0, 1,50.00,60.00,Wednesday
7,22.6
8,23.35601114044188
2,1, 5, 3, 0, 2, 0.00,10.00,Wednesday
7,22.5
8,23.22091156552179
2,1, 5, 3, 0, 2,10.00,20.00,Wednesday
7,22.4
8,23.01640437092952
2,1, 5, 3, 0, 2,20.00,30.00,Wednesday
7,22.3
8,22.820300829535279
2,1, 5, 3, 0, 2,30.00,40.00,Wednesday
7,22.4
8,22.781602048488606
2,1, 5, 3, 0, 2,40.00,50.00,Wednesday
7,22.5
8,22.88748689038898
2,1, 5, 3, 0, 2,50.00,60.00,Wednesday
7,22.3
8,22.872685645003583
2,1, 5, 3, 0, 3, 0.00,10.00,Wednesday
7,22.1
8,22.79819547715492
2,1, 5, 3, 0, 3,10.00,20.00,Wednesday
7,22.0
8,23.044913646497215
2,1, 5, 3, 0, 3,20.00,30.00,Wednesday
7,22.0
8,23.273509890463854
2,1, 5, 3, 0, 3,30.00,40.00,Wednesday
7,21.9
8,23.115716760057553
2,1, 5, 3, 0, 3,40.00,50.00,Wednesday
7,21.9
8,23.121642171605595
2,1, 5, 3, 0, 3,50.00,60.00,Wednesday
7,21.7
8,23.0782017918833
2,1, 5, 3, 0, 4, 0.00,10.00,Wednesday
7,21.7
8,22.819069965640968
2,1, 5, 3, 0, 4,10.00,20.00,Wednesday
7,21.8
8,22.66101303000949
2,1, 5, 3, 0, 4,20.00,30.00,Wednesday
7,21.5
8,22.57636836122175
2,1, 5, 3, 0, 4,30.00,40.00,Wednesday
7,21.4
8,22.102735687127884
2,1, 5, 3, 0, 4,40.00,50.00,Wednesday
7,21.1
8,21.67901570639829
2,1, 5, 3, 0, 4,50.00,60.00,Wednesday
7,21.2
8,21.69460879486887
2,1, 5, 3, 0, 5, 0.00,10.00,Wednesday
7,21.0
8,21.55887910360892
2,1, 5, 3, 0, 5,10.00,20.00,Wednesday
7,20.8
8,21.73394859273668
2,1, 5, 3, 0, 5,20.00,30.00,Wednesday
7,20.9
8,21.90810916078954
2,1, 5, 3, 0, 5,30.00,40.00,Wednesday
7,20.8
8,22.08272636811878
2,1, 5, 3, 0, 5,40.00,50.00,Wednesday
7,21.1
8,22.003825580332685
2,1, 5, 3, 0, 5,50.00,60.00,Wednesday
7,20.8
8,21.554638190525098
2,1, 5, 3, 0, 6, 0.00,10.00,Wednesday
7,20.8
8,21.338448189091208
2,1, 5, 3, 0, 6,10.00,20.00,Wednesday
7,20.1
8,20.959414693069655
2,1, 5, 3, 0, 6,20.00,30.00,Wednesday
7,20.1
8,20.941492192542783
2,1, 5, 3, 0, 6,30.00,40.00,Wednesday
7,19.5
8,20.43596119554334
2,1, 5, 3, 0, 6,40.00,50.00,Wednesday
7,19.6
8,20.340643672242913
2,1, 5, 3, 0, 6,50.00,60.00,Wednesday
7,19.5
8,20.286571921171818
2,1, 5, 3, 0, 7, 0.00,10.00,Wednesday
7,19.6
8,20.436283402901738
2,1, 5, 3, 0, 7,10.00,20.00,Wednesday
7,19.9
8,20.76750042353458
2,1, 5, 3, 0, 7,20.00,30.00,Wednesday
7,19.6
8,20.83777706565619
2,1, 5, 3, 0, 7,30.00,40.00,Wednesday
7,19.4
8,20.156746623074505
2,1, 5, 3, 0, 7,40.00,50.00,Wednesday
7,19.5
8,20.147951038120117
2,1, 5, 3, 0, 7,50.00,60.00,Wednesday
7,19.8
8,21.028993729038964
2,1, 5, 3, 0, 8, 0.00,10.00,Wednesday
7,20.1
8,20.927348985438408
2,1, 5, 3, 0, 8,10.00,20.00,Wednesday
7,20.1
8,20.68595255087262
2,1, 5, 3, 0, 8,20.00,30.00,Wednesday
7,20.7
8,21.106715284174734
2,1, 5, 3, 0, 8,30.00,40.00,Wednesday
7,21.2
8,21.523033585758495
2,1, 5, 3, 0, 8,40.00,50.00,Wednesday
7,22.0
8,22.121538848057669
2,1, 5, 3, 0, 8,50.00,60.00,Wednesday
7,22.9
8,22.83837144366129
2,1, 5, 3, 0, 9, 0.00,10.00,Wednesday
7,24.3
8,23.52654810645943
2,1, 5, 3, 0, 9,10.00,20.00,Wednesday
7,24.3
8,23.76605998435631
2,1, 5, 3, 0, 9,20.00,30.00,Wednesday
7,24.4
8,23.84837740991355
2,1, 5, 3, 0, 9,30.00,40.00,Wednesday
7,24.7
8,24.14218158652811
2,1, 5, 3, 0, 9,40.00,50.00,Wednesday
7,25.1
8,24.549922971465745
2,1, 5, 3, 0, 9,50.00,60.00,Wednesday
7,25.4
8,25.023238369586907
2,1, 5, 3, 0,10, 0.00,10.00,Wednesday
7,25.9
8,25.272070919964937
2,1, 5, 3, 0,10,10.00,20.00,Wednesday
7,26.2
8,25.608159861838798
2,1, 5, 3, 0,10,20.00,30.00,Wednesday
7,26.3
8,25.635355420007018
2,1, 5, 3, 0,10,30.00,40.00,Wednesday
7,26.4
8,25.395873113697868
2,1, 5, 3, 0,10,40.00,50.00,Wednesday
7,26.4
8,25.716334898370925
2,1, 5, 3, 0,10,50.00,60.00,Wednesday
7,25.9
8,25.313069900615298
2,1, 5, 3, 0,11, 0.00,10.00,Wednesday
7,26.2
8,25.767524012453437
2,1, 5, 3, 0,11,10.00,20.00,Wednesday
7,26.9
8,26.196619625195738
2,1, 5, 3, 0,11,20.00,30.00,Wednesday
7,27.2
8,25.95382515334414
2,1, 5, 3, 0,11,30.00,40.00,Wednesday
7,27.3
8,26.29968849054805
2,1, 5, 3, 0,11,40.00,50.00,Wednesday
7,27.4
8,26.462898128357489
2,1, 5, 3, 0,11,50.00,60.00,Wednesday
7,27.6
8,26.192600944621455
2,1, 5, 3, 0,12, 0.00,10.00,Wednesday
7,28.5
8,27.72373507280086
2,1, 5, 3, 0,12,10.00,20.00,Wednesday
7,28.0
8,26.85063343850672
2,1, 5, 3, 0,12,20.00,30.00,Wednesday
7,29.1
8,27.94573041460379
2,1, 5, 3, 0,12,30.00,40.00,Wednesday
7,29.2
8,28.121556721047939
2,1, 5, 3, 0,12,40.00,50.00,Wednesday
7,29.9
8,28.574287933229607
2,1, 5, 3, 0,12,50.00,60.00,Wednesday
7,30.5
8,29.170691722212174
2,1, 5, 3, 0,13, 0.00,10.00,Wednesday
7,31.4
8,29.82904778441359
2,1, 5, 3, 0,13,10.00,20.00,Wednesday
7,30.8
8,28.871300628520009
2,1, 5, 3, 0,13,20.00,30.00,Wednesday
7,30.6
8,28.56504454561142
2,1, 5, 3, 0,13,30.00,40.00,Wednesday
7,30.8
8,30.113388275718856
2,1, 5, 3, 0,13,40.00,50.00,Wednesday
7,30.9
8,30.029155025751157
2,1, 5, 3, 0,13,50.00,60.00,Wednesday
7,31.5
8,29.405802508241459
2,1, 5, 3, 0,14, 0.00,10.00,Wednesday
7,31.8
8,29.51080491427365
2,1, 5, 3, 0,14,10.00,20.00,Wednesday
7,32.0
8,30.388850667947986
2,1, 5, 3, 0,14,20.00,30.00,Wednesday
7,31.8
8,29.68218113201045
2,1, 5, 3, 0,14,30.00,40.00,Wednesday
7,31.6
8,29.627026095319118
2,1, 5, 3, 0,14,40.00,50.00,Wednesday
7,32.8
8,31.616495029540216
2,1, 5, 3, 0,14,50.00,60.00,Wednesday
7,33.5
8,32.345438244815699
2,1, 5, 3, 0,15, 0.00,10.00,Wednesday
7,31.8
8,30.861555847287325
2,1, 5, 3, 0,15,10.00,20.00,Wednesday
7,32.4
8,30.19578700201922
2,1, 5, 3, 0,15,20.00,30.00,Wednesday
7,32.8
8,31.424841113498688
2,1, 5, 3, 0,15,30.00,40.00,Wednesday
7,33.7
8,31.049132393199878
2,1, 5, 3, 0,15,40.00,50.00,Wednesday
7,32.9
8,31.423859075948344
2,1, 5, 3, 0,15,50.00,60.00,Wednesday
7,33.3
8,31.626411400657774
2,1, 5, 3, 0,16, 0.00,10.00,Wednesday
7,33.9
8,31.395383282966298
2,1, 5, 3, 0,16,10.00,20.00,Wednesday
7,33.6
8,31.86792240391967
2,1, 5, 3, 0,16,20.00,30.00,Wednesday
7,32.9
8,31.94620757837806
2,1, 5, 3, 0,16,30.00,40.00,Wednesday
7,33.3
8,31.08000814285186
2,1, 5, 3, 0,16,40.00,50.00,Wednesday
7,33.5
8,32.53450039146336
2,1, 5, 3, 0,16,50.00,60.00,Wednesday
7,32.9
8,31.494934265209957
2,1, 5, 3, 0,17, 0.00,10.00,Wednesday
7,32.6
8,30.810985796090305
2,1, 5, 3, 0,17,10.00,20.00,Wednesday
7,30.9
8,30.122572046337738
2,1, 5, 3, 0,17,20.00,30.00,Wednesday
7,29.4
8,29.244628214360988
2,1, 5, 3, 0,17,30.00,40.00,Wednesday
7,29.0
8,28.844479880705433
2,1, 5, 3, 0,17,40.00,50.00,Wednesday
7,28.4
8,28.29439027482701
2,1, 5, 3, 0,17,50.00,60.00,Wednesday
7,29.2
8,28.89119752561792
2,1, 5, 3, 0,18, 0.00,10.00,Wednesday
7,28.0
8,28.09045860828933
2,1, 5, 3, 0,18,10.00,20.00,Wednesday
7,26.8
8,27.498635455784269
2,1, 5, 3, 0,18,20.00,30.00,Wednesday
7,26.8
8,27.41097417639864
2,1, 5, 3, 0,18,30.00,40.00,Wednesday
7,27.5
8,27.606144230012555
2,1, 5, 3, 0,18,40.00,50.00,Wednesday
7,28.0
8,27.875781104642589
2,1, 5, 3, 0,18,50.00,60.00,Wednesday
7,28.3
8,28.054139890107355
2,1, 5, 3, 0,19, 0.00,10.00,Wednesday
7,28.1
8,28.047674152841944
2,1, 5, 3, 0,19,10.00,20.00,Wednesday
7,28.4
8,28.15069235729624
2,1, 5, 3, 0,19,20.00,30.00,Wednesday
7,28.3
8,28.06644910386006
2,1, 5, 3, 0,19,30.00,40.00,Wednesday
7,28.1
8,27.956651646230147
2,1, 5, 3, 0,19,40.00,50.00,Wednesday
7,27.9
8,27.84039457845663
2,1, 5, 3, 0,19,50.00,60.00,Wednesday
7,27.8
8,27.7312322577123
2,1, 5, 3, 0,20, 0.00,10.00,Wednesday
7,27.7
8,27.62948741279368
2,1, 5, 3, 0,20,10.00,20.00,Wednesday
7,27.4
8,27.44552151122761
2,1, 5, 3, 0,20,20.00,30.00,Wednesday
7,27.0
8,27.12856039744753
2,1, 5, 3, 0,20,30.00,40.00,Wednesday
7,26.9
8,26.971809617322874
2,1, 5, 3, 0,20,40.00,50.00,Wednesday
7,26.6
8,26.69194883988306
2,1, 5, 3, 0,20,50.00,60.00,Wednesday
7,26.3
8,26.4509937199097
2,1, 5, 3, 0,21, 0.00,10.00,Wednesday
7,26.0
8,26.161531327898385
2,1, 5, 3, 0,21,10.00,20.00,Wednesday
7,26.3
8,26.338327324739458
2,1, 5, 3, 0,21,20.00,30.00,Wednesday
7,26.1
8,26.19007393052256
2,1, 5, 3, 0,21,30.00,40.00,Wednesday
7,26.0
8,26.036123825541087
2,1, 5, 3, 0,21,40.00,50.00,Wednesday
7,26.2
8,26.225992059841624
2,1, 5, 3, 0,21,50.00,60.00,Wednesday
7,25.9
8,25.96687159990706
2,1, 5, 3, 0,22, 0.00,10.00,Wednesday
7,26.1
8,26.11357060870764
2,1, 5, 3, 0,22,10.00,20.00,Wednesday
7,25.9
8,25.96432668248617
2,1, 5, 3, 0,22,20.00,30.00,Wednesday
7,25.3
8,25.399356129263049
2,1, 5, 3, 0,22,30.00,40.00,Wednesday
7,25.3
8,25.36328304224562
2,1, 5, 3, 0,22,40.00,50.00,Wednesday
7,25.4
8,25.487330249319937
2,1, 5, 3, 0,22,50.00,60.00,Wednesday
7,25.2
8,25.323007736222026
2,1, 5, 3, 0,23, 0.00,10.00,Wednesday
7,25.1
8,25.296904046865359
2,1, 5, 3, 0,23,10.00,20.00,Wednesday
7,25.6
8,25.640683896045699
2,1, 5, 3, 0,23,20.00,30.00,Wednesday
7,25.5
8,25.597755319678304
2,1, 5, 3, 0,23,30.00,40.00,Wednesday
7,25.0
8,25.30003765616532
2,1, 5, 3, 0,23,40.00,50.00,Wednesday
7,25.0
8,25.197896248566157
2,1, 5, 3, 0,23,50.00,60.00,Wednesday
7,25.3
8,25.385132722741916
2,1, 5, 3, 0,24, 0.00,10.00,Wednesday
7,25.4
8,25.520951104834905
2,1, 5, 3, 0,24,10.00,20.00,Wednesday
7,25.4
8,25.51883201224948
2,1, 5, 3, 0,24,20.00,30.00,Wednesday
7,25.4
8,25.466186179372614
2,1, 5, 3, 0,24,30.00,40.00,Wednesday
7,25.5
8,25.53031504529446
2,1, 5, 3, 0,24,40.00,50.00,Wednesday
7,25.5
8,25.53269585724526
2,1, 5, 3, 0,24,50.00,60.00,Wednesday
7,25.6
8,25.604388532741998
2,2, 5, 4, 0, 1, 0.00,10.00,Thursday
7,25.4
8,25.543668471636918
2,2, 5, 4, 0, 1,10.00,20.00,Thursday
7,25.0
8,25.309980294333227
2,2, 5, 4, 0, 1,20.00,30.00,Thursday
7,24.9
8,25.075315346288514
2,2, 5, 4, 0, 1,30.00,40.00,Thursday
7,24.6
8,24.824413739881579
2,2, 5, 4, 0, 1,40.00,50.00,Thursday
7,24.7
8,24.87020637766179
2,2, 5, 4, 0, 1,50.00,60.00,Thursday
7,24.7
8,24.930622882864648
2,2, 5, 4, 0, 2, 0.00,10.00,Thursday
7,24.7
8,25.07579467711293
2,2, 5, 4, 0, 2,10.00,20.00,Thursday
7,24.6
8,24.940185933184009
2,2, 5, 4, 0, 2,20.00,30.00,Thursday
7,24.7
8,24.93346691728434
2,2, 5, 4, 0, 2,30.00,40.00,Thursday
7,24.6
8,24.857759565687027
2,2, 5, 4, 0, 2,40.00,50.00,Thursday
7,24.6
8,24.790622993104426
2,2, 5, 4, 0, 2,50.00,60.00,Thursday
7,24.5
8,24.727982410223864
2,2, 5, 4, 0, 3, 0.00,10.00,Thursday
7,24.3
8,24.7319791196256
2,2, 5, 4, 0, 3,10.00,20.00,Thursday
7,23.9
8,24.34907611542532
2,2, 5, 4, 0, 3,20.00,30.00,Thursday
7,23.6
8,24.313656262375024
2,2, 5, 4, 0, 3,30.00,40.00,Thursday
7,23.4
8,23.926353640416495
2,2, 5, 4, 0, 3,40.00,50.00,Thursday
7,23.3
8,23.792833129413638
2,2, 5, 4, 0, 3,50.00,60.00,Thursday
7,22.8
8,23.87060487761913
2,2, 5, 4, 0, 4, 0.00,10.00,Thursday
7,22.4
8,23.708678666464587
2,2, 5, 4, 0, 4,10.00,20.00,Thursday
7,22.1
8,23.36803101155641
2,2, 5, 4, 0, 4,20.00,30.00,Thursday
7,21.8
8,23.22308120190766
2,2, 5, 4, 0, 4,30.00,40.00,Thursday
7,21.6
8,23.082915188232744
2,2, 5, 4, 0, 4,40.00,50.00,Thursday
7,21.7
8,23.05804130452853
2,2, 5, 4, 0, 4,50.00,60.00,Thursday
7,21.9
8,22.896798865617048
2,2, 5, 4, 0, 5, 0.00,10.00,Thursday
7,21.4
8,22.746287769305135
2,2, 5, 4, 0, 5,10.00,20.00,Thursday
7,21.3
8,22.515711275591018
2,2, 5, 4, 0, 5,20.00,30.00,Thursday
7,21.7
8,22.426065421509607
2,2, 5, 4, 0, 5,30.00,40.00,Thursday
7,21.7
8,22.462173907994399
2,2, 5, 4, 0, 5,40.00,50.00,Thursday
7,21.3
8,22.286641546777525
2,2, 5, 4, 0, 5,50.00,60.00,Thursday
7,21.1
8,22.10408857780619
2,2, 5, 4, 0, 6, 0.00,10.00,Thursday
7,21.2
8,22.475877687417467
2,2, 5, 4, 0, 6,10.00,20.00,Thursday
7,20.8
8,21.583461221497637
2,2, 5, 4, 0, 6,20.00,30.00,Thursday
7,20.7
8,21.529269520537335
2,2, 5, 4, 0, 6,30.00,40.00,Thursday
7,20.3
8,21.035667893766808
2,2, 5, 4, 0, 6,40.00,50.00,Thursday
7,20.3
8,20.920751087583694
2,2, 5, 4, 0, 6,50.00,60.00,Thursday
7,20.7
8,21.30921540253977
2,2, 5, 4, 0, 7, 0.00,10.00,Thursday
7,20.8
8,21.647053123281006
2,2, 5, 4, 0, 7,10.00,20.00,Thursday
7,21.0
8,21.901183941589279
2,2, 5, 4, 0, 7,20.00,30.00,Thursday
7,21.1
8,21.69539960872921
2,2, 5, 4, 0, 7,30.00,40.00,Thursday
7,20.9
8,21.77126092512998
2,2, 5, 4, 0, 7,40.00,50.00,Thursday
7,21.1
8,21.981134632471507
2,2, 5, 4, 0, 7,50.00,60.00,Thursday
7,21.1
8,22.175816493453217
2,2, 5, 4, 0, 8, 0.00,10.00,Thursday
7,21.1
8,22.174610558498509
2,2, 5, 4, 0, 8,10.00,20.00,Thursday
7,21.4
8,22.072707340270257
2,2, 5, 4, 0, 8,20.00,30.00,Thursday
7,21.8
8,22.14996274735456
2,2, 5, 4, 0, 8,30.00,40.00,Thursday
7,22.2
8,22.452483696793708
2,2, 5, 4, 0, 8,40.00,50.00,Thursday
7,22.5
8,22.762018193850225
2,2, 5, 4, 0, 8,50.00,60.00,Thursday
7,23.2
8,23.233067372205718
2,2, 5, 4, 0, 9, 0.00,10.00,Thursday
7,23.8
8,23.692049934163486
2,2, 5, 4, 0, 9,10.00,20.00,Thursday
7,24.1
8,23.94083872847115
2,2, 5, 4, 0, 9,20.00,30.00,Thursday
7,24.8
8,24.06784399408064
2,2, 5, 4, 0, 9,30.00,40.00,Thursday
7,25.4
8,24.39933601822556
2,2, 5, 4, 0, 9,40.00,50.00,Thursday
7,25.8
8,24.97886540554959
2,2, 5, 4, 0, 9,50.00,60.00,Thursday
7,25.9
8,25.303544314153578
2,2, 5, 4, 0,10, 0.00,10.00,Thursday
7,25.2
8,25.0135078924654
2,2, 5, 4, 0,10,10.00,20.00,Thursday
7,25.0
8,24.792897510652744
2,2, 5, 4, 0,10,20.00,30.00,Thursday
7,25.5
8,24.937487291013086
2,2, 5, 4, 0,10,30.00,40.00,Thursday
7,25.4
8,25.02111539961922
2,2, 5, 4, 0,10,40.00,50.00,Thursday
7,25.6
8,25.125239567774487
2,2, 5, 4, 0,10,50.00,60.00,Thursday
7,25.9
8,25.1031845904454
2,2, 5, 4, 0,11, 0.00,10.00,Thursday
7,26.4
8,25.127140657632656
2,2, 5, 4, 0,11,10.00,20.00,Thursday
7,26.7
8,26.043967745721966
2,2, 5, 4, 0,11,20.00,30.00,Thursday
7,27.0
8,26.310924648281597
2,2, 5, 4, 0,11,30.00,40.00,Thursday
7,27.2
8,26.538758162892987
2,2, 5, 4, 0,11,40.00,50.00,Thursday
7,27.8
8,27.127185524291826
2,2, 5, 4, 0,11,50.00,60.00,Thursday
7,28.2
8,27.265919603656074
2,2, 5, 4, 0,12, 0.00,10.00,Thursday
7,28.6
8,27.629705433080767
2,2, 5, 4, 0,12,10.00,20.00,Thursday
7,29.5
8,28.25382207078736
2,2, 5, 4, 0,12,20.00,30.00,Thursday
7,30.2
8,28.43536385543898
2,2, 5, 4, 0,12,30.00,40.00,Thursday
7,30.2
8,29.204667569473025
2,2, 5, 4, 0,12,40.00,50.00,Thursday
7,30.2
8,28.334333116828917
2,2, 5, 4, 0,12,50.00,60.00,Thursday
7,30.0
8,28.20024326586222
2,2, 5, 4, 0,13, 0.00,10.00,Thursday
7,30.3
8,29.51107678264635
2,2, 5, 4, 0,13,10.00,20.00,Thursday
7,31.2
8,29.178297262565065
2,2, 5, 4, 0,13,20.00,30.00,Thursday
7,31.4
8,30.00216487715732
2,2, 5, 4, 0,13,30.00,40.00,Thursday
7,31.5
8,29.418033472986815
2,2, 5, 4, 0,13,40.00,50.00,Thursday
7,31.5
8,29.751390621993033
2,2, 5, 4, 0,13,50.00,60.00,Thursday
7,31.6
8,30.43468907962532
2,2, 5, 4, 0,14, 0.00,10.00,Thursday
7,32.2
8,30.02791605890846
2,2, 5, 4, 0,14,10.00,20.00,Thursday
7,32.2
8,30.864897259764168
2,2, 5, 4, 0,14,20.00,30.00,Thursday
7,32.1
8,30.953616930580993
2,2, 5, 4, 0,14,30.00,40.00,Thursday
7,32.1
8,30.065759040840914
2,2, 5, 4, 0,14,40.00,50.00,Thursday
7,32.1
8,31.109998963026578
2,2, 5, 4, 0,14,50.00,60.00,Thursday
7,32.7
8,30.7482151864523
2,2, 5, 4, 0,15, 0.00,10.00,Thursday
7,32.7
8,31.666939151178306
2,2, 5, 4, 0,15,10.00,20.00,Thursday
7,32.2
8,30.430912413320919
2,2, 5, 4, 0,15,20.00,30.00,Thursday
7,32.2
8,31.38076774835092
2,2, 5, 4, 0,15,30.00,40.00,Thursday
7,32.1
8,30.988565737897756
2,2, 5, 4, 0,15,40.00,50.00,Thursday
7,32.2
8,30.676457750642045
2,2, 5, 4, 0,15,50.00,60.00,Thursday
7,32.1
8,31.452251792851194
2,2, 5, 4, 0,16, 0.00,10.00,Thursday
7,32.9
8,31.956601692878225
2,2, 5, 4, 0,16,10.00,20.00,Thursday
7,33.7
8,32.3303044604382
2,2, 5, 4, 0,16,20.00,30.00,Thursday
7,33.5
8,32.01825480872566
2,2, 5, 4, 0,16,30.00,40.00,Thursday
7,33.7
8,32.35539335277295
2,2, 5, 4, 0,16,40.00,50.00,Thursday
7,33.4
8,32.47660911736684
2,2, 5, 4, 0,16,50.00,60.00,Thursday
7,32.8
8,32.14267809461318
2,2, 5, 4, 0,17, 0.00,10.00,Thursday
7,33.7
8,31.692185845609914
2,2, 5, 4, 0,17,10.00,20.00,Thursday
7,34.0
8,32.84534305142252
2,2, 5, 4, 0,17,20.00,30.00,Thursday
7,33.5
8,32.32904450031077
2,2, 5, 4, 0,17,30.00,40.00,Thursday
7,33.3
8,32.62311479238535
2,2, 5, 4, 0,17,40.00,50.00,Thursday
7,33.0
8,32.03601012596164
2,2, 5, 4, 0,17,50.00,60.00,Thursday
7,32.8
8,32.37314650356856
2,2, 5, 4, 0,18, 0.00,10.00,Thursday
7,32.6
8,31.7567927596245
2,2, 5, 4, 0,18,10.00,20.00,Thursday
7,32.6
8,31.84668799786817
2,2, 5, 4, 0,18,20.00,30.00,Thursday
7,32.7
8,31.799232310955163
2,2, 5, 4, 0,18,30.00,40.00,Thursday
7,32.8
8,32.102169771192269
2,2, 5, 4, 0,18,40.00,50.00,Thursday
7,33.0
8,32.0498770179857
2,2, 5, 4, 0,18,50.00,60.00,Thursday
7,32.6
8,31.793871607838978
2,2, 5, 4, 0,19, 0.00,10.00,Thursday
7,32.5
8,31.09095378748131
2,2, 5, 4, 0,19,10.00,20.00,Thursday
7,32.3
8,30.370420017068015
2,2, 5, 4, 0,19,20.00,30.00,Thursday
7,32.3
8,31.198012400388366
2,2, 5, 4, 0,19,30.00,40.00,Thursday
7,32.2
8,31.033284777563165
2,2, 5, 4, 0,19,40.00,50.00,Thursday
7,32.0
8,30.925323021364006
2,2, 5, 4, 0,19,50.00,60.00,Thursday
7,31.8
8,30.786884619873495
2,2, 5, 4, 0,20, 0.00,10.00,Thursday
7,31.4
8,30.555384309175044
2,2, 5, 4, 0,20,10.00,20.00,Thursday
7,31.0
8,30.099093512934976
2,2, 5, 4, 0,20,20.00,30.00,Thursday
7,30.5
8,29.57915497572596
2,2, 5, 4, 0,20,30.00,40.00,Thursday
7,30.0
8,29.398497067407726
2,2, 5, 4, 0,20,40.00,50.00,Thursday
7,29.6
8,29.204147092089995
2,2, 5, 4, 0,20,50.00,60.00,Thursday
7,29.5
8,28.932464981211674
2,2, 5, 4, 0,21, 0.00,10.00,Thursday
7,29.2
8,28.737050113096307
2,2, 5, 4, 0,21,10.00,20.00,Thursday
7,29.1
8,28.73790779175758
2,2, 5, 4, 0,21,20.00,30.00,Thursday
7,28.9
8,28.682073871423417
2,2, 5, 4, 0,21,30.00,40.00,Thursday
7,28.9
8,28.579418332444854
2,2, 5, 4, 0,21,40.00,50.00,Thursday
7,28.8
8,28.574711784409418
2,2, 5, 4, 0,21,50.00,60.00,Thursday
7,28.4
8,28.320332338928574
2,2, 5, 4, 0,22, 0.00,10.00,Thursday
7,28.0
8,27.99044448301543
2,2, 5, 4, 0,22,10.00,20.00,Thursday
7,28.0
8,27.915875607423005
2,2, 5, 4, 0,22,20.00,30.00,Thursday
7,27.5
8,27.609030400876966
2,2, 5, 4, 0,22,30.00,40.00,Thursday
7,27.9
8,27.791401373793563
2,2, 5, 4, 0,22,40.00,50.00,Thursday
7,27.9
8,27.869034362974145
2,2, 5, 4, 0,22,50.00,60.00,Thursday
7,27.8
8,27.75354489623087
2,2, 5, 4, 0,23, 0.00,10.00,Thursday
7,27.6
8,27.58857140707172
2,2, 5, 4, 0,23,10.00,20.00,Thursday
7,27.4
8,27.43899475709725
2,2, 5, 4, 0,23,20.00,30.00,Thursday
7,27.1
8,27.26415709540162
2,2, 5, 4, 0,23,30.00,40.00,Thursday
7,26.7
8,27.057939706908145
2,2, 5, 4, 0,23,40.00,50.00,Thursday
7,26.5
8,27.002528880430796
2,2, 5, 4, 0,23,50.00,60.00,Thursday
7,26.8
8,27.01260076558479
2,2, 5, 4, 0,24, 0.00,10.00,Thursday
7,27.0
8,27.043263220602616
2,2, 5, 4, 0,24,10.00,20.00,Thursday
7,26.9
8,26.961954326877419
2,2, 5, 4, 0,24,20.00,30.00,Thursday
7,26.9
8,26.926327826800475
2,2, 5, 4, 0,24,30.00,40.00,Thursday
7,26.8
8,26.869334177709299
2,2, 5, 4, 0,24,40.00,50.00,Thursday
7,26.2
8,26.640186559196687
2,2, 5, 4, 0,24,50.00,60.00,Thursday
7,26.2
8,26.459814540054145
2,3, 5, 5, 0, 1, 0.00,10.00,Friday
7,25.9
8,26.297206976078056
2,3, 5, 5, 0, 1,10.00,20.00,Friday
7,26.1
8,26.274821079976033
2,3, 5, 5, 0, 1,20.00,30.00,Friday
7,26.1
8,26.334724434008245
2,3, 5, 5, 0, 1,30.00,40.00,Friday
7,26.2
8,26.364180260269337
2,3, 5, 5, 0, 1,40.00,50.00,Friday
7,25.8
8,26.067442392110224
2,3, 5, 5, 0, 1,50.00,60.00,Friday
7,25.9
8,26.06787066014552
2,3, 5, 5, 0, 2, 0.00,10.00,Friday
7,25.7
8,26.0708572301865
2,3, 5, 5, 0, 2,10.00,20.00,Friday
7,25.3
8,25.986901927552635
2,3, 5, 5, 0, 2,20.00,30.00,Friday
7,24.9
8,25.576206119750834
2,3, 5, 5, 0, 2,30.00,40.00,Friday
7,24.1
8,24.643976074360134
2,3, 5, 5, 0, 2,40.00,50.00,Friday
7,23.7
8,24.237568815880488
2,3, 5, 5, 0, 2,50.00,60.00,Friday
7,23.4
8,23.90256416245123
2,3, 5, 5, 0, 3, 0.00,10.00,Friday
7,23.4
8,23.907456174673109
2,3, 5, 5, 0, 3,10.00,20.00,Friday
7,23.4
8,23.926184202849876
2,3, 5, 5, 0, 3,20.00,30.00,Friday
7,23.2
8,23.758409919243065
2,3, 5, 5, 0, 3,30.00,40.00,Friday
7,22.8
8,23.33781013650097
2,3, 5, 5, 0, 3,40.00,50.00,Friday
7,22.7
8,23.26248333705592
2,3, 5, 5, 0, 3,50.00,60.00,Friday
7,22.4
8,23.019510291808407
2,3, 5, 5, 0, 4, 0.00,10.00,Friday
7,22.4
8,22.992560770330348
2,3, 5, 5, 0, 4,10.00,20.00,Friday
7,22.7
8,23.46145890525822
2,3, 5, 5, 0, 4,20.00,30.00,Friday
7,22.5
8,23.239868599265934
2,3, 5, 5, 0, 4,30.00,40.00,Friday
7,22.1
8,23.004504386252788
2,3, 5, 5, 0, 4,40.00,50.00,Friday
7,22.3
8,23.113627121917319
2,3, 5, 5, 0, 4,50.00,60.00,Friday
7,22.5
8,23.370329767530909
2,3, 5, 5, 0, 5, 0.00,10.00,Friday
7,22.9
8,23.546653239564006
2,3, 5, 5, 0, 5,10.00,20.00,Friday
7,23.1
8,23.618349734314156
2,3, 5, 5, 0, 5,20.00,30.00,Friday
7,22.5
8,23.153323288828199
2,3, 5, 5, 0, 5,30.00,40.00,Friday
7,22.4
8,23.05060106386595
2,3, 5, 5, 0, 5,40.00,50.00,Friday
7,22.5
8,23.15669759356823
2,3, 5, 5, 0, 5,50.00,60.00,Friday
7,22.3
8,23.082031148747427
2,3, 5, 5, 0, 6, 0.00,10.00,Friday
7,22.0
8,22.80592221442214
2,3, 5, 5, 0, 6,10.00,20.00,Friday
7,21.8
8,23.13649101134339
2,3, 5, 5, 0, 6,20.00,30.00,Friday
7,22.0
8,23.413953727778613
2,3, 5, 5, 0, 6,30.00,40.00,Friday
7,21.8
8,23.344094463507369
2,3, 5, 5, 0, 6,40.00,50.00,Friday
7,21.6
8,23.114107607383656
2,3, 5, 5, 0, 6,50.00,60.00,Friday
7,21.4
8,22.89808615535787
2,3, 5, 5, 0, 7, 0.00,10.00,Friday
7,21.2
8,22.75972644207883
2,3, 5, 5, 0, 7,10.00,20.00,Friday
7,21.1
8,22.340378473227547
2,3, 5, 5, 0, 7,20.00,30.00,Friday
7,21.0
8,22.026344017927927
2,3, 5, 5, 0, 7,30.00,40.00,Friday
7,21.3
8,22.18074962514558
2,3, 5, 5, 0, 7,40.00,50.00,Friday
7,21.4
8,22.368752025067204
2,3, 5, 5, 0, 7,50.00,60.00,Friday
7,21.8
8,22.348633179729484
2,3, 5, 5, 0, 8, 0.00,10.00,Friday
7,21.2
8,21.963298541791177
2,3, 5, 5, 0, 8,10.00,20.00,Friday
7,21.2
8,22.133374264858455
2,3, 5, 5, 0, 8,20.00,30.00,Friday
7,21.7
8,22.65348485893349
2,3, 5, 5, 0, 8,30.00,40.00,Friday
7,22.5
8,23.204374379011939
2,3, 5, 5, 0, 8,40.00,50.00,Friday
7,23.2
8,23.6003422701835
2,3, 5, 5, 0, 8,50.00,60.00,Friday
7,23.6
8,23.812997574370685
2,3, 5, 5, 0, 9, 0.00,10.00,Friday
7,24.7
8,24.21146565550093
2,3, 5, 5, 0, 9,10.00,20.00,Friday
7,25.6
8,24.858631198127229
2,3, 5, 5, 0, 9,20.00,30.00,Friday
7,26.1
8,25.139065669955757
2,3, 5, 5, 0, 9,30.00,40.00,Friday
7,26.6
8,25.756352117061384
2,3, 5, 5, 0, 9,40.00,50.00,Friday
7,26.7
8,26.030176514078496
2,3, 5, 5, 0, 9,50.00,60.00,Friday
7,26.5
8,25.99320832899531
2,3, 5, 5, 0,10, 0.00,10.00,Friday
7,27.0
8,26.18657573983317
2,3, 5, 5, 0,10,10.00,20.00,Friday
7,27.3
8,26.79118526589035
2,3, 5, 5, 0,10,20.00,30.00,Friday
7,27.5
8,26.91784985287932
2,3, 5, 5, 0,10,30.00,40.00,Friday
7,27.5
8,27.0821113619216
2,3, 5, 5, 0,10,40.00,50.00,Friday
7,27.6
8,27.046317677047435
2,3, 5, 5, 0,10,50.00,60.00,Friday
7,27.4
8,27.03099461917561
2,3, 5, 5, 0,11, 0.00,10.00,Friday
7,27.2
8,26.775866401409865
2,3, 5, 5, 0,11,10.00,20.00,Friday
7,28.0
8,27.0066320920639
2,3, 5, 5, 0,11,20.00,30.00,Friday
7,28.2
8,27.290185048380125
2,3, 5, 5, 0,11,30.00,40.00,Friday
7,28.3
8,27.785849969141979
2,3, 5, 5, 0,11,40.00,50.00,Friday
7,28.8
8,28.277686265002303
2,3, 5, 5, 0,11,50.00,60.00,Friday
7,28.7
8,28.03263868527122
2,3, 5, 5, 0,12, 0.00,10.00,Friday
7,28.6
8,28.032178647221458
2,3, 5, 5, 0,12,10.00,20.00,Friday
7,29.0
8,28.39489833557781
2,3, 5, 5, 0,12,20.00,30.00,Friday
7,28.9
8,28.300927106885088
2,3, 5, 5, 0,12,30.00,40.00,Friday
7,29.6
8,28.94577945782997
2,3, 5, 5, 0,12,40.00,50.00,Friday
7,30.5
8,29.810236965098004
2,3, 5, 5, 0,12,50.00,60.00,Friday
7,30.5
8,29.720323752480018
2,3, 5, 5, 0,13, 0.00,10.00,Friday
7,29.6
8,29.094456205397618
2,3, 5, 5, 0,13,10.00,20.00,Friday
7,30.1
8,29.064138168737466
2,3, 5, 5, 0,13,20.00,30.00,Friday
7,31.0
8,30.028847134851277
2,3, 5, 5, 0,13,30.00,40.00,Friday
7,30.6
8,29.484715460346935
2,3, 5, 5, 0,13,40.00,50.00,Friday
7,31.3
8,30.507821466056769
2,3, 5, 5, 0,13,50.00,60.00,Friday
7,31.3
8,30.626177798112388
2,3, 5, 5, 0,14, 0.00,10.00,Friday
7,31.6
8,30.786585301007059
2,3, 5, 5, 0,14,10.00,20.00,Friday
7,32.5
8,31.066135186750008
2,3, 5, 5, 0,14,20.00,30.00,Friday
7,32.8
8,31.832137178026419
2,3, 5, 5, 0,14,30.00,40.00,Friday
7,32.8
8,31.336973415462663
2,3, 5, 5, 0,14,40.00,50.00,Friday
7,33.1
8,31.702787362072148
2,3, 5, 5, 0,14,50.00,60.00,Friday
7,32.7
8,31.820666327069028
2,3, 5, 5, 0,15, 0.00,10.00,Friday
7,33.7
8,32.167628020062497
2,3, 5, 5, 0,15,10.00,20.00,Friday
7,33.0
8,31.722426809154059
2,3, 5, 5, 0,15,20.00,30.00,Friday
7,33.3
8,32.24154421380306
2,3, 5, 5, 0,15,30.00,40.00,Friday
7,33.5
8,31.74505367466316
2,3, 5, 5, 0,15,40.00,50.00,Friday
7,34.0
8,33.257861194504197
2,3, 5, 5, 0,15,50.00,60.00,Friday
7,34.4
8,33.19719267133215
2,3, 5, 5, 0,16, 0.00,10.00,Friday
7,34.5
8,33.09571120212027
2,3, 5, 5, 0,16,10.00,20.00,Friday
7,34.4
8,33.6875510854502
2,3, 5, 5, 0,16,20.00,30.00,Friday
7,34.2
8,33.701688874015378
2,3, 5, 5, 0,16,30.00,40.00,Friday
7,34.4
8,32.312714242724997
2,3, 5, 5, 0,16,40.00,50.00,Friday
7,34.2
8,33.70914379796798
2,3, 5, 5, 0,16,50.00,60.00,Friday
7,34.3
8,32.99852834183215
2,3, 5, 5, 0,17, 0.00,10.00,Friday
7,34.2
8,32.68280991991759
2,3, 5, 5, 0,17,10.00,20.00,Friday
7,34.6
8,32.54840944085791
2,3, 5, 5, 0,17,20.00,30.00,Friday
7,34.8
8,32.72341724855438
2,3, 5, 5, 0,17,30.00,40.00,Friday
7,34.1
8,32.79586305328713
2,3, 5, 5, 0,17,40.00,50.00,Friday
7,33.8
8,32.72086247694735
2,3, 5, 5, 0,17,50.00,60.00,Friday
7,33.6
8,32.48227307151362
2,3, 5, 5, 0,18, 0.00,10.00,Friday
7,33.6
8,33.00113228114857
2,3, 5, 5, 0,18,10.00,20.00,Friday
7,33.8
8,32.89138468135606
2,3, 5, 5, 0,18,20.00,30.00,Friday
7,34.0
8,33.35446770111495
2,3, 5, 5, 0,18,30.00,40.00,Friday
7,33.8
8,33.32836917959841
2,3, 5, 5, 0,18,40.00,50.00,Friday
7,33.8
8,33.211475846457599
2,3, 5, 5, 0,18,50.00,60.00,Friday
7,33.7
8,32.88692041485032
2,3, 5, 5, 0,19, 0.00,10.00,Friday
7,33.3
8,32.83024084219095
2,3, 5, 5, 0,19,10.00,20.00,Friday
7,33.2
8,32.780142754427718
2,3, 5, 5, 0,19,20.00,30.00,Friday
7,33.4
8,32.82758849827507
2,3, 5, 5, 0,19,30.00,40.00,Friday
7,33.5
8,32.71951909154602
2,3, 5, 5, 0,19,40.00,50.00,Friday
7,33.1
8,32.718983491009968
2,3, 5, 5, 0,19,50.00,60.00,Friday
7,32.6
8,32.25543057864513
2,3, 5, 5, 0,20, 0.00,10.00,Friday
7,32.4
8,32.03767381285718
2,3, 5, 5, 0,20,10.00,20.00,Friday
7,32.3
8,31.871486708829609
2,3, 5, 5, 0,20,20.00,30.00,Friday
7,32.1
8,31.73790210041155
2,3, 5, 5, 0,20,30.00,40.00,Friday
7,32.0
8,31.48271209589975
2,3, 5, 5, 0,20,40.00,50.00,Friday
7,31.6
8,31.358823006548414
2,3, 5, 5, 0,20,50.00,60.00,Friday
7,31.3
8,30.970444270828179
2,3, 5, 5, 0,21, 0.00,10.00,Friday
7,31.2
8,30.828833801318955
2,3, 5, 5, 0,21,10.00,20.00,Friday
7,30.8
8,30.585036999127924
2,3, 5, 5, 0,21,20.00,30.00,Friday
7,30.4
8,30.26013752672679
2,3, 5, 5, 0,21,30.00,40.00,Friday
7,30.0
8,29.89614333160365
2,3, 5, 5, 0,21,40.00,50.00,Friday
7,29.6
8,29.534316228029767
2,3, 5, 5, 0,21,50.00,60.00,Friday
7,29.2
8,29.17383775244334
2,3, 5, 5, 0,22, 0.00,10.00,Friday
7,28.8
8,28.81154773104281
2,3, 5, 5, 0,22,10.00,20.00,Friday
7,28.5
8,28.52891722237209
2,3, 5, 5, 0,22,20.00,30.00,Friday
7,28.4
8,28.428624239189284
2,3, 5, 5, 0,22,30.00,40.00,Friday
7,28.3
8,28.354114341154909
2,3, 5, 5, 0,22,40.00,50.00,Friday
7,28.1
8,28.1892331917216
2,3, 5, 5, 0,22,50.00,60.00,Friday
7,28.0
8,28.083959866925114
2,3, 5, 5, 0,23, 0.00,10.00,Friday
7,28.1
8,28.17708369427787
2,3, 5, 5, 0,23,10.00,20.00,Friday
7,27.7
8,27.930466461297969
2,3, 5, 5, 0,23,20.00,30.00,Friday
7,26.9
8,27.411266043784143
2,3, 5, 5, 0,23,30.00,40.00,Friday
7,26.8
8,27.290485046428839
2,3, 5, 5, 0,23,40.00,50.00,Friday
7,26.7
8,27.39789703424017
2,3, 5, 5, 0,23,50.00,60.00,Friday
7,26.5
8,27.305600439588877
2,3, 5, 5, 0,24, 0.00,10.00,Friday
7,26.3
8,27.112560110994254
2,3, 5, 5, 0,24,10.00,20.00,Friday
7,25.9
8,26.706644908259425
2,3, 5, 5, 0,24,20.00,30.00,Friday
7,25.1
8,26.5067590568069
2,3, 5, 5, 0,24,30.00,40.00,Friday
7,25.4
8,26.264380413762994
2,3, 5, 5, 0,24,40.00,50.00,Friday
7,25.3
8,26.207813417103027
2,3, 5, 5, 0,24,50.00,60.00,Friday
7,25.0
8,25.725497003946257
2,4, 5, 6, 0, 1, 0.00,10.00,Saturday
7,24.8
8,25.660735238061933
2,4, 5, 6, 0, 1,10.00,20.00,Saturday
7,24.6
8,25.622897898448035
2,4, 5, 6, 0, 1,20.00,30.00,Saturday
7,24.4
8,25.69766636322927
2,4, 5, 6, 0, 1,30.00,40.00,Saturday
7,24.4
8,25.72361751565803
2,4, 5, 6, 0, 1,40.00,50.00,Saturday
7,24.0
8,25.562186356984044
2,4, 5, 6, 0, 1,50.00,60.00,Saturday
7,24.2
8,25.619506159652138
2,4, 5, 6, 0, 2, 0.00,10.00,Saturday
7,24.1
8,25.57626676738133
2,4, 5, 6, 0, 2,10.00,20.00,Saturday
7,23.9
8,25.40224650654686
2,4, 5, 6, 0, 2,20.00,30.00,Saturday
7,23.7
8,25.23910684512687
2,4, 5, 6, 0, 2,30.00,40.00,Saturday
7,23.4
8,24.990831836614754
2,4, 5, 6, 0, 2,40.00,50.00,Saturday
7,23.0
8,24.82968097581636
2,4, 5, 6, 0, 2,50.00,60.00,Saturday
7,22.9
8,24.745259597511315
2,4, 5, 6, 0, 3, 0.00,10.00,Saturday
7,22.4
8,24.36123224818073
2,4, 5, 6, 0, 3,10.00,20.00,Saturday
7,22.1
8,24.08580395428863
2,4, 5, 6, 0, 3,20.00,30.00,Saturday
7,22.2
8,24.051693051270616
2,4, 5, 6, 0, 3,30.00,40.00,Saturday
7,21.9
8,23.819153073637339
2,4, 5, 6, 0, 3,40.00,50.00,Saturday
7,21.8
8,23.477893759468246
2,4, 5, 6, 0, 3,50.00,60.00,Saturday
7,21.8
8,23.595440792087986
2,4, 5, 6, 0, 4, 0.00,10.00,Saturday
7,21.6
8,23.626713692265633
2,4, 5, 6, 0, 4,10.00,20.00,Saturday
7,21.4
8,23.50170814348037
2,4, 5, 6, 0, 4,20.00,30.00,Saturday
7,21.5
8,23.452972255696808
2,4, 5, 6, 0, 4,30.00,40.00,Saturday
7,21.6