Program Version,EnergyPlus, Version 9.5.0-de239b2e5f, YMD=2021.12.08 15:22
1,5,Environment Title[],Latitude[deg],Longitude[deg],Time Zone[],Elevation[m]
2,8,Day of Simulation[],Month[],Day of Month[],DST Indicator[1=yes 0=no],Hour[],StartMinute[],EndMinute[],DayType
3,5,Cumulative Day of Simulation[],Month[],Day of Month[],DST Indicator[1=yes 0=no],DayType  ! When Daily Report Variables Requested
4,2,Cumulative Days of Simulation[],Month[]  ! When Monthly Report Variables Requested
5,1,Cumulative Days of Simulation[] ! When Run Period Report Variables Requested
6,1,Calendar Year of Simulation[] ! When Annual Report Variables Requested
7,1,Environment,Site Outdoor Air Drybulb Temperature [C] !TimeStep
87,1,THERMAL ZONE: JORGE,Zone Mean Air Temperature [C] !TimeStep
End of Data Dictionary
1,RUN PERIOD 1,  18.85, -99.14,  -6.00,1280.00
2,1, 5, 3, 0, 1, 0.00,10.00,Wednesday
7,23.0
87,26.27956108755346
2,1, 5, 3, 0, 1,10.00,20.00,Wednesday
7,23.0
87,26.23063343797953
2,1, 5, 3, 0, 1,20.00,30.00,Wednesday
7,23.0
87,26.253356528035913
2,1, 5, 3, 0, 1,30.00,40.00,Wednesday
7,22.8
87,26.226963035261407
2,1, 5, 3, 0, 1,40.00,50.00,Wednesday
7,22.7
87,26.11751834828807
2,1, 5, 3, 0, 1,50.00,60.00,Wednesday
7,22.6
87,25.92170330141944
2,1, 5, 3, 0, 2, 0.00,10.00,Wednesday
7,22.5
87,25.759833764794313
2,1, 5, 3, 0, 2,10.00,20.00,Wednesday
7,22.4
87,25.650654857267349
2,1, 5, 3, 0, 2,20.00,30.00,Wednesday
7,22.3
87,25.413480717302748
2,1, 5, 3, 0, 2,30.00,40.00,Wednesday
7,22.4
87,25.28706932199274
2,1, 5, 3, 0, 2,40.00,50.00,Wednesday
7,22.5
87,25.25020649051232
2,1, 5, 3, 0, 2,50.00,60.00,Wednesday
7,22.3
87,25.30011120030391
2,1, 5, 3, 0, 3, 0.00,10.00,Wednesday
7,22.1
87,25.323888867332685
2,1, 5, 3, 0, 3,10.00,20.00,Wednesday
7,22.0
87,25.45800371477086
2,1, 5, 3, 0, 3,20.00,30.00,Wednesday
7,22.0
87,25.561041814684584
2,1, 5, 3, 0, 3,30.00,40.00,Wednesday
7,21.9
87,25.501130683825325
2,1, 5, 3, 0, 3,40.00,50.00,Wednesday
7,21.9
87,25.4402415274869
2,1, 5, 3, 0, 3,50.00,60.00,Wednesday
7,21.7
87,25.380428633772938
2,1, 5, 3, 0, 4, 0.00,10.00,Wednesday
7,21.7
87,25.320818953534219
2,1, 5, 3, 0, 4,10.00,20.00,Wednesday
7,21.8
87,25.212811850683538
2,1, 5, 3, 0, 4,20.00,30.00,Wednesday
7,21.5
87,25.188867066171534
2,1, 5, 3, 0, 4,30.00,40.00,Wednesday
7,21.4
87,24.90594230315931
2,1, 5, 3, 0, 4,40.00,50.00,Wednesday
7,21.1
87,24.52607154965674
2,1, 5, 3, 0, 4,50.00,60.00,Wednesday
7,21.2
87,24.365854821139103
2,1, 5, 3, 0, 5, 0.00,10.00,Wednesday
7,21.0
87,24.29835708693728
2,1, 5, 3, 0, 5,10.00,20.00,Wednesday
7,20.8
87,24.475519439516334
2,1, 5, 3, 0, 5,20.00,30.00,Wednesday
7,20.9
87,24.635196472363988
2,1, 5, 3, 0, 5,30.00,40.00,Wednesday
7,20.8
87,24.749059113720013
2,1, 5, 3, 0, 5,40.00,50.00,Wednesday
7,21.1
87,24.71877970416468
2,1, 5, 3, 0, 5,50.00,60.00,Wednesday
7,20.8
87,24.45709628180748
2,1, 5, 3, 0, 6, 0.00,10.00,Wednesday
7,20.8
87,24.22895505680453
2,1, 5, 3, 0, 6,10.00,20.00,Wednesday
7,20.1
87,24.001747396243095
2,1, 5, 3, 0, 6,20.00,30.00,Wednesday
7,20.1
87,23.950828987691386
2,1, 5, 3, 0, 6,30.00,40.00,Wednesday
7,19.5
87,23.779748866519236
2,1, 5, 3, 0, 6,40.00,50.00,Wednesday
7,19.6
87,23.605980061103915
2,1, 5, 3, 0, 6,50.00,60.00,Wednesday
7,19.5
87,23.48562788945658
2,1, 5, 3, 0, 7, 0.00,10.00,Wednesday
7,19.6
87,23.53172891925328
2,1, 5, 3, 0, 7,10.00,20.00,Wednesday
7,19.9
87,23.710468974166817
2,1, 5, 3, 0, 7,20.00,30.00,Wednesday
7,19.6
87,23.7857610079056
2,1, 5, 3, 0, 7,30.00,40.00,Wednesday
7,19.4
87,23.4520148984293
2,1, 5, 3, 0, 7,40.00,50.00,Wednesday
7,19.5
87,23.283621757304326
2,1, 5, 3, 0, 7,50.00,60.00,Wednesday
7,19.8
87,23.669248240584108
2,1, 5, 3, 0, 8, 0.00,10.00,Wednesday
7,20.1
87,23.721946327198056
2,1, 5, 3, 0, 8,10.00,20.00,Wednesday
7,20.1
87,23.658061658379258
2,1, 5, 3, 0, 8,20.00,30.00,Wednesday
7,20.7
87,23.69266280670196
2,1, 5, 3, 0, 8,30.00,40.00,Wednesday
7,21.2
87,23.81858655372487
2,1, 5, 3, 0, 8,40.00,50.00,Wednesday
7,22.0
87,24.054220493914984
2,1, 5, 3, 0, 8,50.00,60.00,Wednesday
7,22.9
87,24.318909053584084
2,1, 5, 3, 0, 9, 0.00,10.00,Wednesday
7,24.3
87,24.836149394258155
2,1, 5, 3, 0, 9,10.00,20.00,Wednesday
7,24.3
87,25.112459145343146
2,1, 5, 3, 0, 9,20.00,30.00,Wednesday
7,24.4
87,25.20446154449946
2,1, 5, 3, 0, 9,30.00,40.00,Wednesday
7,24.7
87,25.248814977788017
2,1, 5, 3, 0, 9,40.00,50.00,Wednesday
7,25.1
87,25.328249778128268
2,1, 5, 3, 0, 9,50.00,60.00,Wednesday
7,25.4
87,25.43494891144501
2,1, 5, 3, 0,10, 0.00,10.00,Wednesday
7,25.9
87,27.226119510003934
2,1, 5, 3, 0,10,10.00,20.00,Wednesday
7,26.2
87,27.583983013279199
2,1, 5, 3, 0,10,20.00,30.00,Wednesday
7,26.3
87,27.857535966747649
2,1, 5, 3, 0,10,30.00,40.00,Wednesday
7,26.4
87,28.339318182056226
2,1, 5, 3, 0,10,40.00,50.00,Wednesday
7,26.4
87,28.493361145944374
2,1, 5, 3, 0,10,50.00,60.00,Wednesday
7,25.9
87,28.476770549060786
2,1, 5, 3, 0,11, 0.00,10.00,Wednesday
7,26.2
87,28.406187007394079
2,1, 5, 3, 0,11,10.00,20.00,Wednesday
7,26.9
87,28.607457598650514
2,1, 5, 3, 0,11,20.00,30.00,Wednesday
7,27.2
87,28.852338637659039
2,1, 5, 3, 0,11,30.00,40.00,Wednesday
7,27.3
87,28.998818231631235
2,1, 5, 3, 0,11,40.00,50.00,Wednesday
7,27.4
87,29.079168074084348
2,1, 5, 3, 0,11,50.00,60.00,Wednesday
7,27.6
87,29.17634542227339
2,1, 5, 3, 0,12, 0.00,10.00,Wednesday
7,28.5
87,29.32524701879266
2,1, 5, 3, 0,12,10.00,20.00,Wednesday
7,28.0
87,29.42855001360629
2,1, 5, 3, 0,12,20.00,30.00,Wednesday
7,29.1
87,29.658187359851028
2,1, 5, 3, 0,12,30.00,40.00,Wednesday
7,29.2
87,29.771820869691106
2,1, 5, 3, 0,12,40.00,50.00,Wednesday
7,29.9
87,29.962421831642
2,1, 5, 3, 0,12,50.00,60.00,Wednesday
7,30.5
87,30.14562524659621
2,1, 5, 3, 0,13, 0.00,10.00,Wednesday
7,31.4
87,30.373165796478977
2,1, 5, 3, 0,13,10.00,20.00,Wednesday
7,30.8
87,30.481290945873704
2,1, 5, 3, 0,13,20.00,30.00,Wednesday
7,30.6
87,30.551373318253228
2,1, 5, 3, 0,13,30.00,40.00,Wednesday
7,30.8
87,30.682704789629633
2,1, 5, 3, 0,13,40.00,50.00,Wednesday
7,30.9
87,30.805820841723056
2,1, 5, 3, 0,13,50.00,60.00,Wednesday
7,31.5
87,30.844328421114417
2,1, 5, 3, 0,14, 0.00,10.00,Wednesday
7,31.8
87,30.84964210506512
2,1, 5, 3, 0,14,10.00,20.00,Wednesday
7,32.0
87,31.01101902803641
2,1, 5, 3, 0,14,20.00,30.00,Wednesday
7,31.8
87,31.150248994259884
2,1, 5, 3, 0,14,30.00,40.00,Wednesday
7,31.6
87,31.234356006621053
2,1, 5, 3, 0,14,40.00,50.00,Wednesday
7,32.8
87,31.507510986728538
2,1, 5, 3, 0,14,50.00,60.00,Wednesday
7,33.5
87,31.88547323911968
2,1, 5, 3, 0,15, 0.00,10.00,Wednesday
7,31.8
87,31.60558995570237
2,1, 5, 3, 0,15,10.00,20.00,Wednesday
7,32.4
87,31.566801615819267
2,1, 5, 3, 0,15,20.00,30.00,Wednesday
7,32.8
87,31.79672008631257
2,1, 5, 3, 0,15,30.00,40.00,Wednesday
7,33.7
87,31.923869866867084
2,1, 5, 3, 0,15,40.00,50.00,Wednesday
7,32.9
87,32.02394548050078
2,1, 5, 3, 0,15,50.00,60.00,Wednesday
7,33.3
87,32.14536659435316
2,1, 5, 3, 0,16, 0.00,10.00,Wednesday
7,33.9
87,32.250151233254289
2,1, 5, 3, 0,16,10.00,20.00,Wednesday
7,33.6
87,32.3664069729288
2,1, 5, 3, 0,16,20.00,30.00,Wednesday
7,32.9
87,32.3963256188702
2,1, 5, 3, 0,16,30.00,40.00,Wednesday
7,33.3
87,32.382807653593129
2,1, 5, 3, 0,16,40.00,50.00,Wednesday
7,33.5
87,32.533299920080228
2,1, 5, 3, 0,16,50.00,60.00,Wednesday
7,32.9
87,32.3546044148367
2,1, 5, 3, 0,17, 0.00,10.00,Wednesday
7,32.6
87,32.150202431250878
2,1, 5, 3, 0,17,10.00,20.00,Wednesday
7,30.9
87,31.96883538378685
2,1, 5, 3, 0,17,20.00,30.00,Wednesday
7,29.4
87,31.656512371945725
2,1, 5, 3, 0,17,30.00,40.00,Wednesday
7,29.0
87,31.4411674838234
2,1, 5, 3, 0,17,40.00,50.00,Wednesday
7,28.4
87,31.39488175934472
2,1, 5, 3, 0,17,50.00,60.00,Wednesday
7,29.2
87,31.41963438588461
2,1, 5, 3, 0,18, 0.00,10.00,Wednesday
7,28.0
87,31.2978171209807
2,1, 5, 3, 0,18,10.00,20.00,Wednesday
7,26.8
87,31.240807034004413
2,1, 5, 3, 0,18,20.00,30.00,Wednesday
7,26.8
87,31.270556271542259
2,1, 5, 3, 0,18,30.00,40.00,Wednesday
7,27.5
87,31.26957092569318
2,1, 5, 3, 0,18,40.00,50.00,Wednesday
7,28.0
87,31.35160704438498
2,1, 5, 3, 0,18,50.00,60.00,Wednesday
7,28.3
87,31.498497108059543
2,1, 5, 3, 0,19, 0.00,10.00,Wednesday
7,28.1
87,30.054621642345436
2,1, 5, 3, 0,19,10.00,20.00,Wednesday
7,28.4
87,29.69434706040769
2,1, 5, 3, 0,19,20.00,30.00,Wednesday
7,28.3
87,29.41634916571541
2,1, 5, 3, 0,19,30.00,40.00,Wednesday
7,28.1
87,29.209387703424956
2,1, 5, 3, 0,19,40.00,50.00,Wednesday
7,27.9
87,28.986842066290099
2,1, 5, 3, 0,19,50.00,60.00,Wednesday
7,27.8
87,28.821864292253485
2,1, 5, 3, 0,20, 0.00,10.00,Wednesday
7,27.7
87,28.740768712643975
2,1, 5, 3, 0,20,10.00,20.00,Wednesday
7,27.4
87,28.671239209872529
2,1, 5, 3, 0,20,20.00,30.00,Wednesday
7,27.0
87,28.52894179560606
2,1, 5, 3, 0,20,30.00,40.00,Wednesday
7,26.9
87,28.379249596483385
2,1, 5, 3, 0,20,40.00,50.00,Wednesday
7,26.6
87,28.082472532177606
2,1, 5, 3, 0,20,50.00,60.00,Wednesday
7,26.3
87,27.93741450840542
2,1, 5, 3, 0,21, 0.00,10.00,Wednesday
7,26.0
87,27.807208887648345
2,1, 5, 3, 0,21,10.00,20.00,Wednesday
7,26.3
87,27.681694986672715
2,1, 5, 3, 0,21,20.00,30.00,Wednesday
7,26.1
87,27.44742044452339
2,1, 5, 3, 0,21,30.00,40.00,Wednesday
7,26.0
87,27.064451272893604
2,1, 5, 3, 0,21,40.00,50.00,Wednesday
7,26.2
87,27.152879318784714
2,1, 5, 3, 0,21,50.00,60.00,Wednesday
7,25.9
87,27.053610976510926
2,1, 5, 3, 0,22, 0.00,10.00,Wednesday
7,26.1
87,27.062358113850814
2,1, 5, 3, 0,22,10.00,20.00,Wednesday
7,25.9
87,27.007771548114375
2,1, 5, 3, 0,22,20.00,30.00,Wednesday
7,25.3
87,26.778425823626788
2,1, 5, 3, 0,22,30.00,40.00,Wednesday
7,25.3
87,26.671866125970948
2,1, 5, 3, 0,22,40.00,50.00,Wednesday
7,25.4
87,26.74252123916684
2,1, 5, 3, 0,22,50.00,60.00,Wednesday
7,25.2
87,26.72606833902224
2,1, 5, 3, 0,23, 0.00,10.00,Wednesday
7,25.1
87,26.882999775838245
2,1, 5, 3, 0,23,10.00,20.00,Wednesday
7,25.6
87,26.84471227560229
2,1, 5, 3, 0,23,20.00,30.00,Wednesday
7,25.5
87,26.779492969806168
2,1, 5, 3, 0,23,30.00,40.00,Wednesday
7,25.0
87,26.885987399261908
2,1, 5, 3, 0,23,40.00,50.00,Wednesday
7,25.0
87,26.91969097017089
2,1, 5, 3, 0,23,50.00,60.00,Wednesday
7,25.3
87,26.860725683524938
2,1, 5, 3, 0,24, 0.00,10.00,Wednesday
7,25.4
87,26.87243663601651
2,1, 5, 3, 0,24,10.00,20.00,Wednesday
7,25.4
87,26.893702835646339
2,1, 5, 3, 0,24,20.00,30.00,Wednesday
7,25.4
87,26.801525432030137
2,1, 5, 3, 0,24,30.00,40.00,Wednesday
7,25.5
87,26.740726960170574
2,1, 5, 3, 0,24,40.00,50.00,Wednesday
7,25.5
87,26.61849444373464
2,1, 5, 3, 0,24,50.00,60.00,Wednesday
7,25.6
87,26.563057973765099
2,2, 5, 4, 0, 1, 0.00,10.00,Thursday
7,25.4
87,26.720595164602807
2,2, 5, 4, 0, 1,10.00,20.00,Thursday
7,25.0
87,26.80316358874383
2,2, 5, 4, 0, 1,20.00,30.00,Thursday
7,24.9
87,26.684741820441958
2,2, 5, 4, 0, 1,30.00,40.00,Thursday
7,24.6
87,26.45544216009846
2,2, 5, 4, 0, 1,40.00,50.00,Thursday
7,24.7
87,26.396842883257436
2,2, 5, 4, 0, 1,50.00,60.00,Thursday
7,24.7
87,26.44816852419339
2,2, 5, 4, 0, 2, 0.00,10.00,Thursday
7,24.7
87,26.54137713995587
2,2, 5, 4, 0, 2,10.00,20.00,Thursday
7,24.6
87,26.521561952777366
2,2, 5, 4, 0, 2,20.00,30.00,Thursday
7,24.7
87,26.503104753749946
2,2, 5, 4, 0, 2,30.00,40.00,Thursday
7,24.6
87,26.43198528511281
2,2, 5, 4, 0, 2,40.00,50.00,Thursday
7,24.6
87,26.342503195472216
2,2, 5, 4, 0, 2,50.00,60.00,Thursday
7,24.5
87,26.279767813155549
2,2, 5, 4, 0, 3, 0.00,10.00,Thursday
7,24.3
87,26.287706353519419
2,2, 5, 4, 0, 3,10.00,20.00,Thursday
7,23.9
87,26.171925971203679
2,2, 5, 4, 0, 3,20.00,30.00,Thursday
7,23.6
87,26.147720204447013
2,2, 5, 4, 0, 3,30.00,40.00,Thursday
7,23.4
87,25.97724105303473
2,2, 5, 4, 0, 3,40.00,50.00,Thursday
7,23.3
87,25.831036327254645
2,2, 5, 4, 0, 3,50.00,60.00,Thursday
7,22.8
87,25.846287418968858
2,2, 5, 4, 0, 4, 0.00,10.00,Thursday
7,22.4
87,25.789268622106325
2,2, 5, 4, 0, 4,10.00,20.00,Thursday
7,22.1
87,25.681049235748725
2,2, 5, 4, 0, 4,20.00,30.00,Thursday
7,21.8
87,25.58717416944078
2,2, 5, 4, 0, 4,30.00,40.00,Thursday
7,21.6
87,25.465968371345995
2,2, 5, 4, 0, 4,40.00,50.00,Thursday
7,21.7
87,25.37877926594205
2,2, 5, 4, 0, 4,50.00,60.00,Thursday
7,21.9
87,25.355926093335058
2,2, 5, 4, 0, 5, 0.00,10.00,Thursday
7,21.4
87,25.280897029193477
2,2, 5, 4, 0, 5,10.00,20.00,Thursday
7,21.3
87,25.177862269967134
2,2, 5, 4, 0, 5,20.00,30.00,Thursday
7,21.7
87,25.026994988129859
2,2, 5, 4, 0, 5,30.00,40.00,Thursday
7,21.7
87,24.96231054583429
2,2, 5, 4, 0, 5,40.00,50.00,Thursday
7,21.3
87,24.951387919830226
2,2, 5, 4, 0, 5,50.00,60.00,Thursday
7,21.1
87,24.88859246956341
2,2, 5, 4, 0, 6, 0.00,10.00,Thursday
7,21.2
87,24.90973259358817
2,2, 5, 4, 0, 6,10.00,20.00,Thursday
7,20.8
87,24.615228053885219
2,2, 5, 4, 0, 6,20.00,30.00,Thursday
7,20.7
87,24.52074111614382
2,2, 5, 4, 0, 6,30.00,40.00,Thursday
7,20.3
87,24.207173549196136
2,2, 5, 4, 0, 6,40.00,50.00,Thursday
7,20.3
87,23.971156490433953
2,2, 5, 4, 0, 6,50.00,60.00,Thursday
7,20.7
87,24.008066562121358
2,2, 5, 4, 0, 7, 0.00,10.00,Thursday
7,20.8
87,24.24624551859619
2,2, 5, 4, 0, 7,10.00,20.00,Thursday
7,21.0
87,24.484608604023327
2,2, 5, 4, 0, 7,20.00,30.00,Thursday
7,21.1
87,24.29188540607555
2,2, 5, 4, 0, 7,30.00,40.00,Thursday
7,20.9
87,24.40464566434745
2,2, 5, 4, 0, 7,40.00,50.00,Thursday
7,21.1
87,24.534741657368977
2,2, 5, 4, 0, 7,50.00,60.00,Thursday
7,21.1
87,24.61959817326292
2,2, 5, 4, 0, 8, 0.00,10.00,Thursday
7,21.1
87,24.63778770187716
2,2, 5, 4, 0, 8,10.00,20.00,Thursday
7,21.4
87,24.570816133143969
2,2, 5, 4, 0, 8,20.00,30.00,Thursday
7,21.8
87,24.48881831339446
2,2, 5, 4, 0, 8,30.00,40.00,Thursday
7,22.2
87,24.533104362952373
2,2, 5, 4, 0, 8,40.00,50.00,Thursday
7,22.5
87,24.670615086856104
2,2, 5, 4, 0, 8,50.00,60.00,Thursday
7,23.2
87,24.926828094103255
2,2, 5, 4, 0, 9, 0.00,10.00,Thursday
7,23.8
87,25.16449267393397
2,2, 5, 4, 0, 9,10.00,20.00,Thursday
7,24.1
87,25.30593108087392
2,2, 5, 4, 0, 9,20.00,30.00,Thursday
7,24.8
87,25.445917933528656
2,2, 5, 4, 0, 9,30.00,40.00,Thursday
7,25.4
87,25.592494015044417
2,2, 5, 4, 0, 9,40.00,50.00,Thursday
7,25.8
87,25.72517030858705
2,2, 5, 4, 0, 9,50.00,60.00,Thursday
7,25.9
87,25.801119030245585
2,2, 5, 4, 0,10, 0.00,10.00,Thursday
7,25.2
87,27.40888109169782
2,2, 5, 4, 0,10,10.00,20.00,Thursday
7,25.0
87,27.638678930123289
2,2, 5, 4, 0,10,20.00,30.00,Thursday
7,25.5
87,27.925173790499909
2,2, 5, 4, 0,10,30.00,40.00,Thursday
7,25.4
87,28.32144938752316
2,2, 5, 4, 0,10,40.00,50.00,Thursday
7,25.6
87,28.46810083618416
2,2, 5, 4, 0,10,50.00,60.00,Thursday
7,25.9
87,28.55996557267962
2,2, 5, 4, 0,11, 0.00,10.00,Thursday
7,26.4
87,28.669553836311498
2,2, 5, 4, 0,11,10.00,20.00,Thursday
7,26.7
87,28.76508702672061
2,2, 5, 4, 0,11,20.00,30.00,Thursday
7,27.0
87,28.866039031213214
2,2, 5, 4, 0,11,30.00,40.00,Thursday
7,27.2
87,29.010362450691063
2,2, 5, 4, 0,11,40.00,50.00,Thursday
7,27.8
87,29.11886577033477
2,2, 5, 4, 0,11,50.00,60.00,Thursday
7,28.2
87,29.267492985333378
2,2, 5, 4, 0,12, 0.00,10.00,Thursday
7,28.6
87,29.513654158747323
2,2, 5, 4, 0,12,10.00,20.00,Thursday
7,29.5
87,29.664655295664283
2,2, 5, 4, 0,12,20.00,30.00,Thursday
7,30.2
87,29.812218540437244
2,2, 5, 4, 0,12,30.00,40.00,Thursday
7,30.2
87,29.969376653135059
2,2, 5, 4, 0,12,40.00,50.00,Thursday
7,30.2
87,30.05162387137345
2,2, 5, 4, 0,12,50.00,60.00,Thursday
7,30.0
87,30.105200536532366
2,2, 5, 4, 0,13, 0.00,10.00,Thursday
7,30.3
87,30.279848930958033
2,2, 5, 4, 0,13,10.00,20.00,Thursday
7,31.2
87,30.48183863684429
2,2, 5, 4, 0,13,20.00,30.00,Thursday
7,31.4
87,30.644515416504633
2,2, 5, 4, 0,13,30.00,40.00,Thursday
7,31.5
87,30.748831485701709
2,2, 5, 4, 0,13,40.00,50.00,Thursday
7,31.5
87,30.85934468727357
2,2, 5, 4, 0,13,50.00,60.00,Thursday
7,31.6
87,31.028116590378795
2,2, 5, 4, 0,14, 0.00,10.00,Thursday
7,32.2
87,31.118507788500204
2,2, 5, 4, 0,14,10.00,20.00,Thursday
7,32.2
87,31.220653772032148
2,2, 5, 4, 0,14,20.00,30.00,Thursday
7,32.1
87,31.273261530868145
2,2, 5, 4, 0,14,30.00,40.00,Thursday
7,32.1
87,31.281442389308006
2,2, 5, 4, 0,14,40.00,50.00,Thursday
7,32.1
87,31.368569294225929
2,2, 5, 4, 0,14,50.00,60.00,Thursday
7,32.7
87,31.49893059396437
2,2, 5, 4, 0,15, 0.00,10.00,Thursday
7,32.7
87,31.719936186344499
2,2, 5, 4, 0,15,10.00,20.00,Thursday
7,32.2
87,31.682943607937618
2,2, 5, 4, 0,15,20.00,30.00,Thursday
7,32.2
87,31.739916980389109
2,2, 5, 4, 0,15,30.00,40.00,Thursday
7,32.1
87,31.75411260292486
2,2, 5, 4, 0,15,40.00,50.00,Thursday
7,32.2
87,31.758256336675175
2,2, 5, 4, 0,15,50.00,60.00,Thursday
7,32.1
87,31.86630028422576
2,2, 5, 4, 0,16, 0.00,10.00,Thursday
7,32.9
87,32.114634671954949
2,2, 5, 4, 0,16,10.00,20.00,Thursday
7,33.7
87,32.29646239377492
2,2, 5, 4, 0,16,20.00,30.00,Thursday
7,33.5
87,32.39551339279264
2,2, 5, 4, 0,16,30.00,40.00,Thursday
7,33.7
87,32.46703418800334
2,2, 5, 4, 0,16,40.00,50.00,Thursday
7,33.4
87,32.48934043366731
2,2, 5, 4, 0,16,50.00,60.00,Thursday
7,32.8
87,32.43722810856481
2,2, 5, 4, 0,17, 0.00,10.00,Thursday
7,33.7
87,32.42409390421481
2,2, 5, 4, 0,17,10.00,20.00,Thursday
7,34.0
87,32.56745637642833
2,2, 5, 4, 0,17,20.00,30.00,Thursday
7,33.5
87,32.506967396314859
2,2, 5, 4, 0,17,30.00,40.00,Thursday
7,33.3
87,32.57634273882252
2,2, 5, 4, 0,17,40.00,50.00,Thursday
7,33.0
87,32.4995299327651
2,2, 5, 4, 0,17,50.00,60.00,Thursday
7,32.8
87,32.50226232310315
2,2, 5, 4, 0,18, 0.00,10.00,Thursday
7,32.6
87,32.404210927969717
2,2, 5, 4, 0,18,10.00,20.00,Thursday
7,32.6
87,32.41651952499603
2,2, 5, 4, 0,18,20.00,30.00,Thursday
7,32.7
87,32.452658545103968
2,2, 5, 4, 0,18,30.00,40.00,Thursday
7,32.8
87,32.53771577461944
2,2, 5, 4, 0,18,40.00,50.00,Thursday
7,33.0
87,32.599099463316189
2,2, 5, 4, 0,18,50.00,60.00,Thursday
7,32.6
87,32.54116986062985
2,2, 5, 4, 0,19, 0.00,10.00,Thursday
7,32.5
87,31.140892833448925
2,2, 5, 4, 0,19,10.00,20.00,Thursday
7,32.3
87,30.665197167462368
2,2, 5, 4, 0,19,20.00,30.00,Thursday
7,32.3
87,30.4171810282296
2,2, 5, 4, 0,19,30.00,40.00,Thursday
7,32.2
87,30.125176522949546
2,2, 5, 4, 0,19,40.00,50.00,Thursday
7,32.0
87,30.09458574753055
2,2, 5, 4, 0,19,50.00,60.00,Thursday
7,31.8
87,30.01138668375892
2,2, 5, 4, 0,20, 0.00,10.00,Thursday
7,31.4
87,29.877880224649439
2,2, 5, 4, 0,20,10.00,20.00,Thursday
7,31.0
87,29.721448844735478
2,2, 5, 4, 0,20,20.00,30.00,Thursday
7,30.5
87,29.588910993410257
2,2, 5, 4, 0,20,30.00,40.00,Thursday
7,30.0
87,29.499568593092986
2,2, 5, 4, 0,20,40.00,50.00,Thursday
7,29.6
87,29.421700831697828
2,2, 5, 4, 0,20,50.00,60.00,Thursday
7,29.5
87,29.35587923307456
2,2, 5, 4, 0,21, 0.00,10.00,Thursday
7,29.2
87,29.295075387158524
2,2, 5, 4, 0,21,10.00,20.00,Thursday
7,29.1
87,29.24105133653269
2,2, 5, 4, 0,21,20.00,30.00,Thursday
7,28.9
87,29.176479098343007
2,2, 5, 4, 0,21,30.00,40.00,Thursday
7,28.9
87,29.13479195606337
2,2, 5, 4, 0,21,40.00,50.00,Thursday
7,28.8
87,29.08983103491057
2,2, 5, 4, 0,21,50.00,60.00,Thursday
7,28.4
87,29.010521628320868
2,2, 5, 4, 0,22, 0.00,10.00,Thursday
7,28.0
87,28.89079150961954
2,2, 5, 4, 0,22,10.00,20.00,Thursday
7,28.0
87,28.811225948863645
2,2, 5, 4, 0,22,20.00,30.00,Thursday
7,27.5
87,28.695965487113054
2,2, 5, 4, 0,22,30.00,40.00,Thursday
7,27.9
87,28.661729239671197
2,2, 5, 4, 0,22,40.00,50.00,Thursday
7,27.9
87,28.634707854118515
2,2, 5, 4, 0,22,50.00,60.00,Thursday
7,27.8
87,28.64115339354489
2,2, 5, 4, 0,23, 0.00,10.00,Thursday
7,27.6
87,28.597842996644727
2,2, 5, 4, 0,23,10.00,20.00,Thursday
7,27.4
87,28.55455002279016
2,2, 5, 4, 0,23,20.00,30.00,Thursday
7,27.1
87,28.480922429566527
2,2, 5, 4, 0,23,30.00,40.00,Thursday
7,26.7
87,28.40924830566871
2,2, 5, 4, 0,23,40.00,50.00,Thursday
7,26.5
87,28.32249842030491
2,2, 5, 4, 0,23,50.00,60.00,Thursday
7,26.8
87,28.265586282859315
2,2, 5, 4, 0,24, 0.00,10.00,Thursday
7,27.0
87,28.236203575936288
2,2, 5, 4, 0,24,10.00,20.00,Thursday
7,26.9
87,28.137572757158897
2,2, 5, 4, 0,24,20.00,30.00,Thursday
7,26.9
87,28.073189203469704
2,2, 5, 4, 0,24,30.00,40.00,Thursday
7,26.8
87,28.04753474264259
2,2, 5, 4, 0,24,40.00,50.00,Thursday
7,26.2
87,27.992378770347807
2,2, 5, 4, 0,24,50.00,60.00,Thursday
7,26.2
87,27.875581859226256
2,3, 5, 5, 0, 1, 0.00,10.00,Friday
7,25.9
87,27.763196670190774
2,3, 5, 5, 0, 1,10.00,20.00,Friday
7,26.1
87,27.723034150133125
2,3, 5, 5, 0, 1,20.00,30.00,Friday
7,26.1
87,27.690051499356274
2,3, 5, 5, 0, 1,30.00,40.00,Friday
7,26.2
87,27.66911633920354
2,3, 5, 5, 0, 1,40.00,50.00,Friday
7,25.8
87,27.567302681901027
2,3, 5, 5, 0, 1,50.00,60.00,Friday
7,25.9
87,27.5320194440291
2,3, 5, 5, 0, 2, 0.00,10.00,Friday
7,25.7
87,27.496834202152355
2,3, 5, 5, 0, 2,10.00,20.00,Friday
7,25.3
87,27.443203168903268
2,3, 5, 5, 0, 2,20.00,30.00,Friday
7,24.9
87,27.314771706017145
2,3, 5, 5, 0, 2,30.00,40.00,Friday
7,24.1
87,26.939574918303973
2,3, 5, 5, 0, 2,40.00,50.00,Friday
7,23.7
87,26.69338037305753
2,3, 5, 5, 0, 2,50.00,60.00,Friday
7,23.4
87,26.402328960914557
2,3, 5, 5, 0, 3, 0.00,10.00,Friday
7,23.4
87,26.37986967847072
2,3, 5, 5, 0, 3,10.00,20.00,Friday
7,23.4
87,26.335338489425927
2,3, 5, 5, 0, 3,20.00,30.00,Friday
7,23.2
87,26.211856321235837
2,3, 5, 5, 0, 3,30.00,40.00,Friday
7,22.8
87,25.99885400093313
2,3, 5, 5, 0, 3,40.00,50.00,Friday
7,22.7
87,25.95868644841203
2,3, 5, 5, 0, 3,50.00,60.00,Friday
7,22.4
87,25.80542263378155
2,3, 5, 5, 0, 4, 0.00,10.00,Friday
7,22.4
87,25.761566181390117
2,3, 5, 5, 0, 4,10.00,20.00,Friday
7,22.7
87,25.899002904147044
2,3, 5, 5, 0, 4,20.00,30.00,Friday
7,22.5
87,25.906627600860298
2,3, 5, 5, 0, 4,30.00,40.00,Friday
7,22.1
87,25.811068845817954
2,3, 5, 5, 0, 4,40.00,50.00,Friday
7,22.3
87,25.78030638773597
2,3, 5, 5, 0, 4,50.00,60.00,Friday
7,22.5
87,25.8391117398982
2,3, 5, 5, 0, 5, 0.00,10.00,Friday
7,22.9
87,25.893824363824558
2,3, 5, 5, 0, 5,10.00,20.00,Friday
7,23.1
87,25.84462156027157
2,3, 5, 5, 0, 5,20.00,30.00,Friday
7,22.5
87,25.67310612415791
2,3, 5, 5, 0, 5,30.00,40.00,Friday
7,22.4
87,25.55524706742613
2,3, 5, 5, 0, 5,40.00,50.00,Friday
7,22.5
87,25.548743395663707
2,3, 5, 5, 0, 5,50.00,60.00,Friday
7,22.3
87,25.558578708813547
2,3, 5, 5, 0, 6, 0.00,10.00,Friday
7,22.0
87,25.457071690332833
2,3, 5, 5, 0, 6,10.00,20.00,Friday
7,21.8
87,25.52873302375707
2,3, 5, 5, 0, 6,20.00,30.00,Friday
7,22.0
87,25.588485566876597
2,3, 5, 5, 0, 6,30.00,40.00,Friday
7,21.8
87,25.5538737033275
2,3, 5, 5, 0, 6,40.00,50.00,Friday
7,21.6
87,25.45604657716314
2,3, 5, 5, 0, 6,50.00,60.00,Friday
7,21.4
87,25.353442600805054
2,3, 5, 5, 0, 7, 0.00,10.00,Friday
7,21.2
87,25.266442241670228
2,3, 5, 5, 0, 7,10.00,20.00,Friday
7,21.1
87,25.132801561673415
2,3, 5, 5, 0, 7,20.00,30.00,Friday
7,21.0
87,24.95790123631856
2,3, 5, 5, 0, 7,30.00,40.00,Friday
7,21.3
87,24.910602715532045
2,3, 5, 5, 0, 7,40.00,50.00,Friday
7,21.4
87,24.958226540528285
2,3, 5, 5, 0, 7,50.00,60.00,Friday
7,21.8
87,24.879535132474876
2,3, 5, 5, 0, 8, 0.00,10.00,Friday
7,21.2
87,24.761840360667628
2,3, 5, 5, 0, 8,10.00,20.00,Friday
7,21.2
87,24.764077391098597
2,3, 5, 5, 0, 8,20.00,30.00,Friday
7,21.7
87,24.983809617631306
2,3, 5, 5, 0, 8,30.00,40.00,Friday
7,22.5
87,25.166422005834357
2,3, 5, 5, 0, 8,40.00,50.00,Friday
7,23.2
87,25.488719235345984
2,3, 5, 5, 0, 8,50.00,60.00,Friday
7,23.6
87,25.709547022121226
2,3, 5, 5, 0, 9, 0.00,10.00,Friday
7,24.7
87,25.79122668737753
2,3, 5, 5, 0, 9,10.00,20.00,Friday
7,25.6
87,25.962860015621783
2,3, 5, 5, 0, 9,20.00,30.00,Friday
7,26.1
87,26.16520287065963
2,3, 5, 5, 0, 9,30.00,40.00,Friday
7,26.6
87,26.337611896675843
2,3, 5, 5, 0, 9,40.00,50.00,Friday
7,26.7
87,26.44483055033668
2,3, 5, 5, 0, 9,50.00,60.00,Friday
7,26.5
87,26.492342336186998
2,3, 5, 5, 0,10, 0.00,10.00,Friday
7,27.0
87,28.29729594296421
2,3, 5, 5, 0,10,10.00,20.00,Friday
7,27.3
87,28.630410375826018
2,3, 5, 5, 0,10,20.00,30.00,Friday
7,27.5
87,28.923057401277128
2,3, 5, 5, 0,10,30.00,40.00,Friday
7,27.5
87,29.18602833301043
2,3, 5, 5, 0,10,40.00,50.00,Friday
7,27.6
87,29.4219666284337
2,3, 5, 5, 0,10,50.00,60.00,Friday
7,27.4
87,29.458342520100066
2,3, 5, 5, 0,11, 0.00,10.00,Friday
7,27.2
87,29.522377452632154
2,3, 5, 5, 0,11,10.00,20.00,Friday
7,28.0
87,29.71742779286347
2,3, 5, 5, 0,11,20.00,30.00,Friday
7,28.2
87,29.884344088430045
2,3, 5, 5, 0,11,30.00,40.00,Friday
7,28.3
87,29.9469075443187
2,3, 5, 5, 0,11,40.00,50.00,Friday
7,28.8
87,30.030527372560209
2,3, 5, 5, 0,11,50.00,60.00,Friday
7,28.7
87,30.206435287604355
2,3, 5, 5, 0,12, 0.00,10.00,Friday
7,28.6
87,30.25614837160599
2,3, 5, 5, 0,12,10.00,20.00,Friday
7,29.0
87,30.365521766566304
2,3, 5, 5, 0,12,20.00,30.00,Friday
7,28.9
87,30.493836683176178
2,3, 5, 5, 0,12,30.00,40.00,Friday
7,29.6
87,30.64246586315126
2,3, 5, 5, 0,12,40.00,50.00,Friday
7,30.5
87,30.82371451395433
2,3, 5, 5, 0,12,50.00,60.00,Friday
7,30.5
87,30.926288142450909
2,3, 5, 5, 0,13, 0.00,10.00,Friday
7,29.6
87,30.94233383823019
2,3, 5, 5, 0,13,10.00,20.00,Friday
7,30.1
87,31.103409295802196
2,3, 5, 5, 0,13,20.00,30.00,Friday
7,31.0
87,31.323274273122967
2,3, 5, 5, 0,13,30.00,40.00,Friday
7,30.6
87,31.390495206899144
2,3, 5, 5, 0,13,40.00,50.00,Friday
7,31.3
87,31.530253190363845
2,3, 5, 5, 0,13,50.00,60.00,Friday
7,31.3
87,31.585802341164567
2,3, 5, 5, 0,14, 0.00,10.00,Friday
7,31.6
87,31.622660179626956
2,3, 5, 5, 0,14,10.00,20.00,Friday
7,32.5
87,31.800787072069654
2,3, 5, 5, 0,14,20.00,30.00,Friday
7,32.8
87,31.977889287094368
2,3, 5, 5, 0,14,30.00,40.00,Friday
7,32.8
87,32.019797778493209
2,3, 5, 5, 0,14,40.00,50.00,Friday
7,33.1
87,32.189698439849497
2,3, 5, 5, 0,14,50.00,60.00,Friday
7,32.7
87,32.24544119131476
2,3, 5, 5, 0,15, 0.00,10.00,Friday
7,33.7
87,32.41284343501814
2,3, 5, 5, 0,15,10.00,20.00,Friday
7,33.0
87,32.42139452332168
2,3, 5, 5, 0,15,20.00,30.00,Friday
7,33.3
87,32.53266585870278
2,3, 5, 5, 0,15,30.00,40.00,Friday
7,33.5
87,32.627576301466969
2,3, 5, 5, 0,15,40.00,50.00,Friday
7,34.0
87,32.9090413955188
2,3, 5, 5, 0,15,50.00,60.00,Friday
7,34.4
87,32.97478490499722
2,3, 5, 5, 0,16, 0.00,10.00,Friday
7,34.5
87,33.04013684852353
2,3, 5, 5, 0,16,10.00,20.00,Friday
7,34.4
87,33.241896007810897
2,3, 5, 5, 0,16,20.00,30.00,Friday
7,34.2
87,33.34951117441051
2,3, 5, 5, 0,16,30.00,40.00,Friday
7,34.4
87,33.18842991305536
2,3, 5, 5, 0,16,40.00,50.00,Friday
7,34.2
87,33.39197201361
2,3, 5, 5, 0,16,50.00,60.00,Friday
7,34.3
87,33.31072012713217
2,3, 5, 5, 0,17, 0.00,10.00,Friday
7,34.2
87,33.26097637618996
2,3, 5, 5, 0,17,10.00,20.00,Friday
7,34.6
87,33.28370407158423
2,3, 5, 5, 0,17,20.00,30.00,Friday
7,34.8
87,33.320048796594317
2,3, 5, 5, 0,17,30.00,40.00,Friday
7,34.1
87,33.2844094492597
2,3, 5, 5, 0,17,40.00,50.00,Friday
7,33.8
87,33.22245196502419
2,3, 5, 5, 0,17,50.00,60.00,Friday
7,33.6
87,33.166903061563548
2,3, 5, 5, 0,18, 0.00,10.00,Friday
7,33.6
87,33.223858168784349
2,3, 5, 5, 0,18,10.00,20.00,Friday
7,33.8
87,33.31722975057935
2,3, 5, 5, 0,18,20.00,30.00,Friday
7,34.0
87,33.45748423543766
2,3, 5, 5, 0,18,30.00,40.00,Friday
7,33.8
87,33.50140282620942
2,3, 5, 5, 0,18,40.00,50.00,Friday
7,33.8
87,33.5025090653489
2,3, 5, 5, 0,18,50.00,60.00,Friday
7,33.7
87,33.4451652692983
2,3, 5, 5, 0,19, 0.00,10.00,Friday
7,33.3
87,32.187354027639418
2,3, 5, 5, 0,19,10.00,20.00,Friday
7,33.2
87,31.896696556783615
2,3, 5, 5, 0,19,20.00,30.00,Friday
7,33.4
87,31.679885246771428
2,3, 5, 5, 0,19,30.00,40.00,Friday
7,33.5
87,31.455141430823454
2,3, 5, 5, 0,19,40.00,50.00,Friday
7,33.1
87,31.53000693646517
2,3, 5, 5, 0,19,50.00,60.00,Friday
7,32.6
87,31.36869789900933
2,3, 5, 5, 0,20, 0.00,10.00,Friday
7,32.4
87,31.15263583949073
2,3, 5, 5, 0,20,10.00,20.00,Friday
7,32.3
87,30.973474370303927
2,3, 5, 5, 0,20,20.00,30.00,Friday
7,32.1
87,30.894829727052885
2,3, 5, 5, 0,20,30.00,40.00,Friday
7,32.0
87,30.79037346690818
2,3, 5, 5, 0,20,40.00,50.00,Friday
7,31.6
87,30.764261952702957
2,3, 5, 5, 0,20,50.00,60.00,Friday
7,31.3
87,30.609050375817568
2,3, 5, 5, 0,21, 0.00,10.00,Friday
7,31.2
87,30.469330512511055
2,3, 5, 5, 0,21,10.00,20.00,Friday
7,30.8
87,30.36374259308399
2,3, 5, 5, 0,21,20.00,30.00,Friday
7,30.4
87,30.247120862422226
2,3, 5, 5, 0,21,30.00,40.00,Friday
7,30.0
87,30.09061117043532
2,3, 5, 5, 0,21,40.00,50.00,Friday
7,29.6
87,29.919642829070793
2,3, 5, 5, 0,21,50.00,60.00,Friday
7,29.2
87,29.753972789863167
2,3, 5, 5, 0,22, 0.00,10.00,Friday
7,28.8
87,29.593687955898134
2,3, 5, 5, 0,22,10.00,20.00,Friday
7,28.5
87,29.426870338507866
2,3, 5, 5, 0,22,20.00,30.00,Friday
7,28.4
87,29.39750301746997
2,3, 5, 5, 0,22,30.00,40.00,Friday
7,28.3
87,29.387844058373167
2,3, 5, 5, 0,22,40.00,50.00,Friday
7,28.1
87,29.311798106166166
2,3, 5, 5, 0,22,50.00,60.00,Friday
7,28.0
87,29.230199490388978
2,3, 5, 5, 0,23, 0.00,10.00,Friday
7,28.1
87,29.283015764147018
2,3, 5, 5, 0,23,10.00,20.00,Friday
7,27.7
87,29.201529205043099
2,3, 5, 5, 0,23,20.00,30.00,Friday
7,26.9
87,29.046054916559986
2,3, 5, 5, 0,23,30.00,40.00,Friday
7,26.8
87,28.93378481505779
2,3, 5, 5, 0,23,40.00,50.00,Friday
7,26.7
87,28.870861115994825
2,3, 5, 5, 0,23,50.00,60.00,Friday
7,26.5
87,28.799365839104899
2,3, 5, 5, 0,24, 0.00,10.00,Friday
7,26.3
87,28.712114895786287
2,3, 5, 5, 0,24,10.00,20.00,Friday
7,25.9
87,28.560390794112
2,3, 5, 5, 0,24,20.00,30.00,Friday
7,25.1
87,28.453891746723
2,3, 5, 5, 0,24,30.00,40.00,Friday
7,25.4
87,28.359971241446098
2,3, 5, 5, 0,24,40.00,50.00,Friday
7,25.3
87,28.273876662563976
2,3, 5, 5, 0,24,50.00,60.00,Friday
7,25.0
87,28.033126861738727
2,4, 5, 6, 0, 1, 0.00,10.00,Saturday
7,24.8
87,27.93021798830339
2,4, 5, 6, 0, 1,10.00,20.00,Saturday
7,24.6
87,27.851835584157237
2,4, 5, 6, 0, 1,20.00,30.00,Saturday
7,24.4
87,27.80924693478998
2,4, 5, 6, 0, 1,30.00,40.00,Saturday
7,24.4
87,27.77484406489947
2,4, 5, 6, 0, 1,40.00,50.00,Saturday
7,24.0
87,27.67691638840811
2,4, 5, 6, 0, 1,50.00,60.00,Saturday
7,24.2
87,27.604157194658645
2,4, 5, 6, 0, 2, 0.00,10.00,Saturday
7,24.1
87,27.539949293395837
2,4, 5, 6, 0, 2,10.00,20.00,Saturday
7,23.9
87,27.45780232165451
2,4, 5, 6, 0, 2,20.00,30.00,Saturday
7,23.7
87,27.359189950549035
2,4, 5, 6, 0, 2,30.00,40.00,Saturday
7,23.4
87,27.252261969952344
2,4, 5, 6, 0, 2,40.00,50.00,Saturday
7,23.0
87,27.118609181071937
2,4, 5, 6, 0, 2,50.00,60.00,Saturday
7,22.9
87,27.01476737552337
2,4, 5, 6, 0, 3, 0.00,10.00,Saturday
7,22.4
87,26.91213285678426
2,4, 5, 6, 0, 3,10.00,20.00,Saturday
7,22.1
87,26.761770905707569
2,4, 5, 6, 0, 3,20.00,30.00,Saturday
7,22.2
87,26.658941009433148