Program Version,EnergyPlus, Version 9.5.0-de239b2e5f, YMD=2021.12.09 19:14
1,5,Environment Title[],Latitude[deg],Longitude[deg],Time Zone[],Elevation[m]
2,8,Day of Simulation[],Month[],Day of Month[],DST Indicator[1=yes 0=no],Hour[],StartMinute[],EndMinute[],DayType
3,5,Cumulative Day of Simulation[],Month[],Day of Month[],DST Indicator[1=yes 0=no],DayType  ! When Daily Report Variables Requested
4,2,Cumulative Days of Simulation[],Month[]  ! When Monthly Report Variables Requested
5,1,Cumulative Days of Simulation[] ! When Run Period Report Variables Requested
6,1,Calendar Year of Simulation[] ! When Annual Report Variables Requested
148,1,THERMAL ZONE: JORGE,Zone Mean Air Temperature [C] !TimeStep
596,1,JORGE,Zone Thermal Comfort Fanger Model PMV [] !TimeStep
597,1,JORGE,Zone Thermal Comfort Fanger Model PPD [%] !TimeStep
End of Data Dictionary
1,RUN PERIOD 1,  18.85, -99.14,  -6.00,1280.00
2,1, 5, 3, 0, 1, 0.00,10.00,Wednesday
148,26.52025799432077
596,-1.107718235115311
597,30.86775320734202
2,1, 5, 3, 0, 1,10.00,20.00,Wednesday
148,26.41106874446674
596,-1.145947778179374
597,32.64955913996816
2,1, 5, 3, 0, 1,20.00,30.00,Wednesday
148,26.378476690367106
596,-1.1592043894336055
597,33.27842478892866
2,1, 5, 3, 0, 1,30.00,40.00,Wednesday
148,26.361104054230947
596,-1.1730366835350788
597,33.94042920123478
2,1, 5, 3, 0, 1,40.00,50.00,Wednesday
148,26.316372710509009
596,-1.193370449796159
597,34.92410065876824
2,1, 5, 3, 0, 1,50.00,60.00,Wednesday
148,26.227693818687564
596,-1.2268780665153918
597,36.57121130874832
2,1, 5, 3, 0, 2, 0.00,10.00,Wednesday
148,26.14270082388915
596,-1.2600374823463652
597,38.231302224252868
2,1, 5, 3, 0, 2,10.00,20.00,Wednesday
148,26.08803334834698
596,-1.2848218152982958
597,39.49025551734196
2,1, 5, 3, 0, 2,20.00,30.00,Wednesday
148,25.961615041755118
596,-1.3304392061523894
597,41.84425304552564
2,1, 5, 3, 0, 2,30.00,40.00,Wednesday
148,25.90043548516632
596,-1.3546600540268606
597,43.11157321681848
2,1, 5, 3, 0, 2,40.00,50.00,Wednesday
148,25.876806808442077
596,-1.3660240331758307
597,43.70993371381729
2,1, 5, 3, 0, 2,50.00,60.00,Wednesday
148,25.89321062725739
596,-1.3691644274043449
597,43.875688625828228
2,1, 5, 3, 0, 3, 0.00,10.00,Wednesday
148,25.89811312911821
596,-1.3761531437759072
597,44.24516570835558
2,1, 5, 3, 0, 3,10.00,20.00,Wednesday
148,25.952591250164088
596,-1.3653087033042002
597,43.672201328779078
2,1, 5, 3, 0, 3,20.00,30.00,Wednesday
148,25.995233238264079
596,-1.356830521193187
597,43.22567873998611
2,1, 5, 3, 0, 3,30.00,40.00,Wednesday
148,25.968198875874287
596,-1.3725888338052526
597,44.05662630115585
2,1, 5, 3, 0, 3,40.00,50.00,Wednesday
148,25.94024903819196
596,-1.384618347317809
597,44.69378056465584
2,1, 5, 3, 0, 3,50.00,60.00,Wednesday
148,25.906654625623334
596,-1.4031218669365
597,45.67826452613497
2,1, 5, 3, 0, 4, 0.00,10.00,Wednesday
148,25.875632752602884
596,-1.4194929072325807
597,46.55339446274994
2,1, 5, 3, 0, 4,10.00,20.00,Wednesday
148,25.82667209086187
596,-1.4385965938682713
597,47.57895749046007
2,1, 5, 3, 0, 4,20.00,30.00,Wednesday
148,25.808860451457414
596,-1.4545218434286485
597,48.437062530407377
2,1, 5, 3, 0, 4,30.00,40.00,Wednesday
148,25.66726243926805
596,-1.5072487489268798
597,51.29404672879177
2,1, 5, 3, 0, 4,40.00,50.00,Wednesday
148,25.464021431248506
596,-1.5838974935251836
597,55.46855831977743
2,1, 5, 3, 0, 4,50.00,60.00,Wednesday
148,25.359030888654595
596,-1.6240202877842148
597,57.65119184232731
2,1, 5, 3, 0, 5, 0.00,10.00,Wednesday
148,25.313928133494668
596,-1.6498378261282399
597,59.050734509413789
2,1, 5, 3, 0, 5,10.00,20.00,Wednesday
148,25.39544874348696
596,-1.6331118358653816
597,58.14459700690451
2,1, 5, 3, 0, 5,20.00,30.00,Wednesday
148,25.476956835415007
596,-1.610644861759051
597,56.924382746947419
2,1, 5, 3, 0, 5,30.00,40.00,Wednesday
148,25.523293360508604
596,-1.601681203137496
597,56.43679972924468
2,1, 5, 3, 0, 5,40.00,50.00,Wednesday
148,25.498686067092206
596,-1.6100905560998469
597,56.89424169161605
2,1, 5, 3, 0, 5,50.00,60.00,Wednesday
148,25.38116798294693
596,-1.6583786561574366
597,59.512517618407468
2,1, 5, 3, 0, 6, 0.00,10.00,Wednesday
148,25.27267231464014
596,-1.6982389374312537
597,61.657358903586
2,1, 5, 3, 0, 6,10.00,20.00,Wednesday
148,25.137361097819544
596,-1.7586364245786897
597,64.86398648314079
2,1, 5, 3, 0, 6,20.00,30.00,Wednesday
148,25.091241143052107
596,-1.778918229456403
597,65.92583859840642
2,1, 5, 3, 0, 6,30.00,40.00,Wednesday
148,24.988617266781924
596,-1.8290643373884619
597,68.51148972374819
2,1, 5, 3, 0, 6,40.00,50.00,Wednesday
148,24.887281862376584
596,-1.8661446685702279
597,70.38157487610539
2,1, 5, 3, 0, 6,50.00,60.00,Wednesday
148,24.81437096822188
596,-1.898128820744689
597,71.96204857345752
2,1, 5, 3, 0, 7, 0.00,10.00,Wednesday
148,24.831680381347799
596,-1.8967670846509433
597,71.89541611816765
2,1, 5, 3, 0, 7,10.00,20.00,Wednesday
148,24.928570605952787
596,-1.86678187695729
597,70.41336796870977
2,1, 5, 3, 0, 7,20.00,30.00,Wednesday
148,24.968498084343638
596,-1.8621798405062176
597,70.18348258293307
2,1, 5, 3, 0, 7,30.00,40.00,Wednesday
148,24.80296301325685
596,-1.9232478858098688
597,73.18015866801764
2,1, 5, 3, 0, 7,40.00,50.00,Wednesday
148,24.71364516043428
596,-1.9515615846358519
597,74.52699549450057
2,1, 5, 3, 0, 7,50.00,60.00,Wednesday
148,24.91340171503941
596,-1.878206192113662
597,70.9813064447784
2,1, 5, 3, 0, 8, 0.00,10.00,Wednesday
148,25.058815920160368
596,-1.8266851405064689
597,68.39021425774058
2,1, 5, 3, 0, 8,10.00,20.00,Wednesday
148,24.958896971787874
596,-1.8547094157733424
597,69.80899443708624
2,1, 5, 3, 0, 8,20.00,30.00,Wednesday
148,25.014762180755235
596,-1.823298509179562
597,68.21733218818346
2,1, 5, 3, 0, 8,30.00,40.00,Wednesday
148,25.131135419833407
596,-1.7715577053095076
597,65.54146172513089
2,1, 5, 3, 0, 8,40.00,50.00,Wednesday
148,25.2954833539414
596,-1.699372348736594
597,61.718059992096659
2,1, 5, 3, 0, 8,50.00,60.00,Wednesday
148,25.536338605915757
596,-1.6006339751463475
597,56.37981277133378
2,1, 5, 3, 0, 9, 0.00,10.00,Wednesday
148,25.742352088333285
596,-1.5017514113533
597,50.995284610309429
2,1, 5, 3, 0, 9,10.00,20.00,Wednesday
148,25.951063162585827
596,-1.4270141507628762
597,46.95663487218367
2,1, 5, 3, 0, 9,20.00,30.00,Wednesday
148,26.111116475153535
596,-1.3667249073930552
597,43.746912201276128
2,1, 5, 3, 0, 9,30.00,40.00,Wednesday
148,26.211176970284205
596,-1.3197961617219834
597,41.29103846803944
2,1, 5, 3, 0, 9,40.00,50.00,Wednesday
148,26.297894795694949
596,-1.271381184710029
597,38.80566879322617
2,1, 5, 3, 0, 9,50.00,60.00,Wednesday
148,26.36772802360923
596,-1.232303069558639
597,36.840820644423228
2,1, 5, 3, 0,10, 0.00,10.00,Wednesday
148,28.662337510992459
596,0.39743107002256036
597,8.290796383443109
2,1, 5, 3, 0,10,10.00,20.00,Wednesday
148,28.940916093303174
596,0.5116443938335199
597,10.473267901092598
2,1, 5, 3, 0,10,20.00,30.00,Wednesday
148,29.234546947768508
596,0.5869420840487163
597,12.220257621710758
2,1, 5, 3, 0,10,30.00,40.00,Wednesday
148,29.73139652715703
596,0.7293321777550775
597,16.195793176209734
2,1, 5, 3, 0,10,40.00,50.00,Wednesday
148,29.878319752391869
596,0.7998592689068242
597,18.4883687205769
2,1, 5, 3, 0,10,50.00,60.00,Wednesday
148,29.83474201098004
596,0.8199862445331896
597,19.18139315678775
2,1, 5, 3, 0,11, 0.00,10.00,Wednesday
148,29.807714258082325
596,0.8226878195306083
597,19.27571461758501
2,1, 5, 3, 0,11,10.00,20.00,Wednesday
148,29.93445255538835
596,0.8824545633106212
597,21.440255367831115
2,1, 5, 3, 0,11,20.00,30.00,Wednesday
148,30.07922373357738
596,0.9466804665559854
597,23.929283583063126
2,1, 5, 3, 0,11,30.00,40.00,Wednesday
148,30.15815815355802
596,0.9913304440832078
597,25.756039555614309
2,1, 5, 3, 0,11,40.00,50.00,Wednesday
148,30.199303854372979
596,1.0238368751401655
597,27.13402225105962
2,1, 5, 3, 0,11,50.00,60.00,Wednesday
148,30.250351661515017
596,1.0474870614183894
597,28.161287741416147
2,1, 5, 3, 0,12, 0.00,10.00,Wednesday
148,30.35215824582939
596,1.0902645449388318
597,30.07047669488273
2,1, 5, 3, 0,12,10.00,20.00,Wednesday
148,30.389012167110928
596,1.1050213198823052
597,30.74388299802331
2,1, 5, 3, 0,12,20.00,30.00,Wednesday
148,30.5119550131283
596,1.1603782475682477
597,33.3343755788662
2,1, 5, 3, 0,12,30.00,40.00,Wednesday
148,30.570110175913169
596,1.1836010421490726
597,34.449955085839807
2,1, 5, 3, 0,12,40.00,50.00,Wednesday
148,30.673779748866648
596,1.2253755232134903
597,36.496679908858229
2,1, 5, 3, 0,12,50.00,60.00,Wednesday
148,30.771397350237434
596,1.2639961974575962
597,38.43138217987342
2,1, 5, 3, 0,13, 0.00,10.00,Wednesday
148,30.884286113013809
596,1.3113387844584668
597,40.85311674942947
2,1, 5, 3, 0,13,10.00,20.00,Wednesday
148,30.932338730474798
596,1.3313930015837996
597,41.89394292045061
2,1, 5, 3, 0,13,20.00,30.00,Wednesday
148,30.95041624307611
596,1.3533410569040534
597,43.0422730167542
2,1, 5, 3, 0,13,30.00,40.00,Wednesday
148,31.001481270263765
596,1.3661109184439214
597,43.714517363335627
2,1, 5, 3, 0,13,40.00,50.00,Wednesday
148,31.056734652146767
596,1.3733805747019404
597,44.09848825535641
2,1, 5, 3, 0,13,50.00,60.00,Wednesday
148,31.050360819979966
596,1.3742787826852557
597,44.14599219765122
2,1, 5, 3, 0,14, 0.00,10.00,Wednesday
148,30.988576418444059
596,1.3877548733269625
597,44.860292364563118
2,1, 5, 3, 0,14,10.00,20.00,Wednesday
148,31.053826008757583
596,1.4409362039184004
597,47.70485251767298
2,1, 5, 3, 0,14,20.00,30.00,Wednesday
148,31.159264797909278
596,1.4819127570918287
597,49.9186344346689
2,1, 5, 3, 0,14,30.00,40.00,Wednesday
148,31.217985781994643
596,1.5096408728196609
597,51.42409954560281
2,1, 5, 3, 0,14,40.00,50.00,Wednesday
148,31.34110904651737
596,1.5553640650159593
597,53.91377356966572
2,1, 5, 3, 0,14,50.00,60.00,Wednesday
148,31.537927141087058
596,1.606398378560194
597,56.69343777252878
2,1, 5, 3, 0,15, 0.00,10.00,Wednesday
148,31.372086397721185
596,1.5431149521409318
597,53.24631435586054
2,1, 5, 3, 0,15,10.00,20.00,Wednesday
148,31.36851330328176
596,1.564250865673388
597,54.39807637336497
2,1, 5, 3, 0,15,20.00,30.00,Wednesday
148,31.505840195336178
596,1.6275128231356158
597,57.84079934156473
2,1, 5, 3, 0,15,30.00,40.00,Wednesday
148,31.600004423008224
596,1.6681486093998606
597,60.03988984543031
2,1, 5, 3, 0,15,40.00,50.00,Wednesday
148,31.652834316759919
596,1.6780480527297313
597,60.573217066259207
2,1, 5, 3, 0,15,50.00,60.00,Wednesday
148,31.72165174637695
596,1.7072521527665637
597,62.13957578273156
2,1, 5, 3, 0,16, 0.00,10.00,Wednesday
148,31.791351300100915
596,1.7433148608171787
597,64.05644082850748
2,1, 5, 3, 0,16,10.00,20.00,Wednesday
148,31.83513478637256
596,1.7583636852395226
597,64.84965051091278
2,1, 5, 3, 0,16,20.00,30.00,Wednesday
148,31.843960092684694
596,1.7548319448772075
597,64.66388126261285
2,1, 5, 3, 0,16,30.00,40.00,Wednesday
148,31.833037355953647
596,1.7561858772060688
597,64.73512655699702
2,1, 5, 3, 0,16,40.00,50.00,Wednesday
148,31.864224590775409
596,1.7557834779513682
597,64.71395559299615
2,1, 5, 3, 0,16,50.00,60.00,Wednesday
148,31.700742403117837
596,1.6926792165794802
597,61.35935117737397
2,1, 5, 3, 0,17, 0.00,10.00,Wednesday
148,31.505171645038528
596,1.644639110860058
597,58.76933372659946
2,1, 5, 3, 0,17,10.00,20.00,Wednesday
148,31.336293457755337
596,1.5822875030311794
597,55.38085801028707
2,1, 5, 3, 0,17,20.00,30.00,Wednesday
148,31.170068113887515
596,1.5136972838890715
597,51.64469757876703
2,1, 5, 3, 0,17,30.00,40.00,Wednesday
148,30.969883634630166
596,1.4463453010224346
597,47.996147814267967
2,1, 5, 3, 0,17,40.00,50.00,Wednesday
148,30.86539865883471
596,1.4055257194922129
597,45.80653320171674
2,1, 5, 3, 0,17,50.00,60.00,Wednesday
148,30.9390973983786
596,1.4269024238146518
597,46.950639617399449
2,1, 5, 3, 0,18, 0.00,10.00,Wednesday
148,30.89977289126476
596,1.4062022087769815
597,45.842645181450858
2,1, 5, 3, 0,18,10.00,20.00,Wednesday
148,30.815184283900554
596,1.383354088510513
597,44.626707592128919
2,1, 5, 3, 0,18,20.00,30.00,Wednesday
148,30.777129452426935
596,1.3781534687822946
597,44.35106813198723
2,1, 5, 3, 0,18,30.00,40.00,Wednesday
148,30.798623710088504
596,1.3896074288042924
597,44.958713015676718
2,1, 5, 3, 0,18,40.00,50.00,Wednesday
148,30.85427044626882
596,1.4097531083945474
597,46.03230231484691
2,1, 5, 3, 0,18,50.00,60.00,Wednesday
148,30.908102702288539
596,1.4295037229565209
597,47.090264603457118
2,1, 5, 3, 0,19, 0.00,10.00,Wednesday
148,29.40462131755657
596,0.2785774041853528
597,6.611823816973569
2,1, 5, 3, 0,19,10.00,20.00,Wednesday
148,29.015141110703046
596,0.14479642428239287
597,5.434410707985805
2,1, 5, 3, 0,19,20.00,30.00,Wednesday
148,28.755411024706768
596,0.0559947319388324
597,5.064913681403013
2,1, 5, 3, 0,19,30.00,40.00,Wednesday
148,28.24018865921063
596,-0.08615140274223288
597,5.153691455715091
2,1, 5, 3, 0,19,40.00,50.00,Wednesday
148,27.962786536206236
596,-0.1833168934768573
597,5.696672207715238
2,1, 5, 3, 0,19,50.00,60.00,Wednesday
148,27.884975427207466
596,-0.24502823297190608
597,6.246071763940705
2,1, 5, 3, 0,20, 0.00,10.00,Wednesday
148,27.867474173427138
596,-0.27638780235687168
597,6.586506940927691
2,1, 5, 3, 0,20,10.00,20.00,Wednesday
148,27.82571241141126
596,-0.3105445209025805
597,7.004487871467703
2,1, 5, 3, 0,20,20.00,30.00,Wednesday
148,27.75493820725793
596,-0.3454859726575823
597,7.483174416447682
2,1, 5, 3, 0,20,30.00,40.00,Wednesday
148,27.666246610162678
596,-0.3845976112510579
597,8.080559945274914
2,1, 5, 3, 0,20,40.00,50.00,Wednesday
148,27.536314110388085
596,-0.443992648152949
597,9.1127794785003
2,1, 5, 3, 0,20,50.00,60.00,Wednesday
148,27.430610311956703
596,-0.5027644419623538
597,10.283428299600502
2,1, 5, 3, 0,21, 0.00,10.00,Wednesday
148,27.361524246645549
596,-0.5378420497077137
597,11.053212432225124
2,1, 5, 3, 0,21,10.00,20.00,Wednesday
148,27.30332608224724
596,-0.5686706244814772
597,11.773753505461983
2,1, 5, 3, 0,21,20.00,30.00,Wednesday
148,27.200783596997238
596,-0.6263974365510474
597,13.23385870905058
2,1, 5, 3, 0,21,30.00,40.00,Wednesday
148,27.036819815933414
596,-0.6919874850368049
597,15.06825214285152
2,1, 5, 3, 0,21,40.00,50.00,Wednesday
148,27.036815825432684
596,-0.7151625398827682
597,15.760895179962205
2,1, 5, 3, 0,21,50.00,60.00,Wednesday
148,26.980252795655873
596,-0.7598580887223777
597,17.162002386384218
2,1, 5, 3, 0,22, 0.00,10.00,Wednesday
148,26.9790737606478
596,-0.7746430004932129
597,17.644308902572847
2,1, 5, 3, 0,22,10.00,20.00,Wednesday
148,26.955140277801239
596,-0.7962614451264066
597,18.366289272983197
2,1, 5, 3, 0,22,20.00,30.00,Wednesday
148,26.83210152187103
596,-0.8525087566210623
597,20.337175991541458
2,1, 5, 3, 0,22,30.00,40.00,Wednesday
148,26.746003266023029
596,-0.8877235967741587
597,21.63816268519473
2,1, 5, 3, 0,22,40.00,50.00,Wednesday
148,26.758070777681426
596,-0.8916719284950474
597,21.787208059952478
2,1, 5, 3, 0,22,50.00,60.00,Wednesday
148,26.75580914083445
596,-0.9038599498449619
597,22.25130028922048
2,1, 5, 3, 0,23, 0.00,10.00,Wednesday
148,26.811719225014195
596,-0.8980754092818257
597,22.030284719883086
2,1, 5, 3, 0,23,10.00,20.00,Wednesday
148,26.82586596697291
596,-0.8887351605713414
597,21.676287469514535
2,1, 5, 3, 0,23,20.00,30.00,Wednesday
148,26.81871876623891
596,-0.9005275511435608
597,22.123810149810028
2,1, 5, 3, 0,23,30.00,40.00,Wednesday
148,26.834689674501435
596,-0.9126851492263837
597,22.59110578941288
2,1, 5, 3, 0,23,40.00,50.00,Wednesday
148,26.83291196536553
596,-0.9186156242436728
597,22.82121920792595
2,1, 5, 3, 0,23,50.00,60.00,Wednesday
148,26.82779739540667
596,-0.9200851461488865
597,22.878458207995693
2,1, 5, 3, 0,24, 0.00,10.00,Wednesday
148,26.851248371356467
596,-0.9169084190250728
597,22.754831305899218
2,1, 5, 3, 0,24,10.00,20.00,Wednesday
148,26.86963226551947
596,-0.9194515429843269
597,22.85376823706072
2,1, 5, 3, 0,24,20.00,30.00,Wednesday
148,26.83827818904095
596,-0.9352094423551448
597,23.47258885420142
2,1, 5, 3, 0,24,30.00,40.00,Wednesday
148,26.814679040597363
596,-0.9474546468721669
597,23.960293654609573
2,1, 5, 3, 0,24,40.00,50.00,Wednesday
148,26.763643966442513
596,-0.9693694913925706
597,24.84786968285232
2,1, 5, 3, 0,24,50.00,60.00,Wednesday
148,26.737792295291855
596,-0.9835587543529517
597,25.432526764666166
2,2, 5, 4, 0, 1, 0.00,10.00,Thursday
148,26.794424353048777
596,-0.9777774966180042
597,25.19337533433304
2,2, 5, 4, 0, 1,10.00,20.00,Thursday
148,26.81497747881612
596,-0.9840107214644451
597,25.451277379016945
2,2, 5, 4, 0, 1,20.00,30.00,Thursday
148,26.759515507891416
596,-1.00545799463741
597,26.350027818941486
2,2, 5, 4, 0, 1,30.00,40.00,Thursday
148,26.65025731554293
596,-1.046576373088664
597,28.12135284315626
2,2, 5, 4, 0, 1,40.00,50.00,Thursday
148,26.608139636279906
596,-1.062774797530409
597,28.836138796491086
2,2, 5, 4, 0, 1,50.00,60.00,Thursday
148,26.620204667769554
596,-1.0647640800943883
597,28.92456763306322
2,2, 5, 4, 0, 2, 0.00,10.00,Thursday
148,26.65485923087314
596,-1.0605227600293739
597,28.736199997362477
2,2, 5, 4, 0, 2,10.00,20.00,Thursday
148,26.64860371725273
596,-1.0676654601963887
597,29.05379373848855
2,2, 5, 4, 0, 2,20.00,30.00,Thursday
148,26.64294792672598
596,-1.0722613194846
597,29.25910117208886
2,2, 5, 4, 0, 2,30.00,40.00,Thursday
148,26.612710293924129
596,-1.0867247285013673
597,29.91005264817484
2,2, 5, 4, 0, 2,40.00,50.00,Thursday
148,26.572412244100105
596,-1.1027966226917574
597,30.641886961474797
2,2, 5, 4, 0, 2,50.00,60.00,Thursday
148,26.538688194297355
596,-1.1193558350891142
597,31.40506995191882
2,2, 5, 4, 0, 3, 0.00,10.00,Thursday
148,26.527426656894137
596,-1.1315768326504648
597,31.974151902496105
2,2, 5, 4, 0, 3,10.00,20.00,Thursday
148,26.45924836514171
596,-1.162788252362935
597,33.44938014431975
2,2, 5, 4, 0, 3,20.00,30.00,Thursday
148,26.433565350900403
596,-1.1803479405144404
597,34.292698496281108
2,2, 5, 4, 0, 3,30.00,40.00,Thursday
148,26.340577462749115
596,-1.2164626220804514
597,36.05584431836453
2,2, 5, 4, 0, 3,40.00,50.00,Thursday
148,26.254641125317855
596,-1.2479774290353012
597,37.624209431067338
2,2, 5, 4, 0, 3,50.00,60.00,Thursday
148,26.242395621090624
596,-1.2643018090274876
597,38.44684452905368
2,2, 5, 4, 0, 4, 0.00,10.00,Thursday
148,26.187521035183033
596,-1.292753288547648
597,39.89623369206332
2,2, 5, 4, 0, 4,10.00,20.00,Thursday
148,26.107558065584084
596,-1.3265015384531119
597,41.63930679168825
2,2, 5, 4, 0, 4,20.00,30.00,Thursday
148,26.053765283134916
596,-1.3521351836717162
597,42.97894428953152
2,2, 5, 4, 0, 4,30.00,40.00,Thursday
148,25.978545039500245
596,-1.3835171184074276
597,44.63535542055355
2,2, 5, 4, 0, 4,40.00,50.00,Thursday
148,25.9180544121846
596,-1.4066156397644645
597,45.86471789804905
2,2, 5, 4, 0, 4,50.00,60.00,Thursday
148,25.91386904571018
596,-1.4107805866814592
597,46.08721351245861
2,2, 5, 4, 0, 5, 0.00,10.00,Thursday
148,25.86010581415377
596,-1.4396347151833427
597,47.634811510722737
2,2, 5, 4, 0, 5,10.00,20.00,Thursday
148,25.792382922035828
596,-1.4684059051785515
597,49.187239022910379
2,2, 5, 4, 0, 5,20.00,30.00,Thursday
148,25.723086167910077
596,-1.4895750106592265
597,50.334160785169519
2,2, 5, 4, 0, 5,30.00,40.00,Thursday
148,25.697451427901368
596,-1.5021313523480103
597,51.01592789333824
2,2, 5, 4, 0, 5,40.00,50.00,Thursday
148,25.682881003701075
596,-1.5189399382694729
597,51.92991463762908
2,2, 5, 4, 0, 5,50.00,60.00,Thursday
148,25.63833625048155
596,-1.542042150211128
597,53.187866393567137
2,2, 5, 4, 0, 6, 0.00,10.00,Thursday
148,25.631525178959448
596,-1.5457948171537209
597,53.392325875777377
2,2, 5, 4, 0, 6,10.00,20.00,Thursday
148,25.484340480052006
596,-1.6065399765938893
597,56.701139926273857
2,2, 5, 4, 0, 6,20.00,30.00,Thursday
148,25.432369151056748
596,-1.62989745067427
597,57.970213416866638
2,2, 5, 4, 0, 6,30.00,40.00,Thursday
148,25.265948510685804
596,-1.6961169152348983
597,61.54366472547206
2,2, 5, 4, 0, 6,40.00,50.00,Thursday
148,25.122868291339225
596,-1.7476615985259879
597,64.28598885091037
2,2, 5, 4, 0, 6,50.00,60.00,Thursday
148,25.12577876736039
596,-1.744764432279797
597,64.13303001224392
2,2, 5, 4, 0, 7, 0.00,10.00,Thursday
148,25.253657026802924
596,-1.7078241253596474
597,62.170137903051088
2,2, 5, 4, 0, 7,10.00,20.00,Thursday
148,25.385727365815673
596,-1.6679157898341258
597,60.027333905522358
2,2, 5, 4, 0, 7,20.00,30.00,Thursday
148,25.300432108139618
596,-1.697120158184569
597,61.59742428556318
2,2, 5, 4, 0, 7,30.00,40.00,Thursday
148,25.357687685428784
596,-1.6842810268246736
597,60.90843754807975
2,2, 5, 4, 0, 7,40.00,50.00,Thursday
148,25.428474315639109
596,-1.6571089971720184
597,59.4439131010517
2,2, 5, 4, 0, 7,50.00,60.00,Thursday
148,25.47811325568649
596,-1.6376725864648283
597,58.39189501392016
2,2, 5, 4, 0, 8, 0.00,10.00,Thursday
148,25.50717050972817
596,-1.62517830605098
597,57.714068537205147
2,2, 5, 4, 0, 8,10.00,20.00,Thursday
148,25.507860047026047
596,-1.6178456767472922
597,57.31579292254234
2,2, 5, 4, 0, 8,20.00,30.00,Thursday
148,25.487022099594527
596,-1.6166807550068665
597,57.25249077831516
2,2, 5, 4, 0, 8,30.00,40.00,Thursday
148,25.53537860798236
596,-1.586628490468725
597,55.61730904496031
2,2, 5, 4, 0, 8,40.00,50.00,Thursday
148,25.665299572139437
596,-1.5266104430452173
597,52.34740769450873
2,2, 5, 4, 0, 8,50.00,60.00,Thursday
148,25.855983527549506
596,-1.4512420866562426
597,48.26012170113695
2,2, 5, 4, 0, 9, 0.00,10.00,Thursday
148,26.02475028803404
596,-1.386515451460265
597,44.79447549574885
2,2, 5, 4, 0, 9,10.00,20.00,Thursday
148,26.128023444747187
596,-1.3539434618437465
597,43.07391946333206
2,2, 5, 4, 0, 9,20.00,30.00,Thursday
148,26.239068572942647
596,-1.2924088577962064
597,39.87857363055615
2,2, 5, 4, 0, 9,30.00,40.00,Thursday
148,26.366099789038576
596,-1.2348476658122685
597,36.967554151771548
2,2, 5, 4, 0, 9,40.00,50.00,Thursday
148,26.493378144514425
596,-1.173449570067838
597,33.960279739635158
2,2, 5, 4, 0, 9,50.00,60.00,Thursday
148,26.564368855366558
596,-1.1516072334064136
597,32.91735471289839
2,2, 5, 4, 0,10, 0.00,10.00,Thursday
148,28.710771998298808
596,0.3999099039819511
597,8.332215775532518
2,2, 5, 4, 0,10,10.00,20.00,Thursday
148,28.861235750894886
596,0.47712805107940356
597,9.754475505486426
2,2, 5, 4, 0,10,20.00,30.00,Thursday
148,29.178899803142238
596,0.5619143272092305
597,11.612316079049905
2,2, 5, 4, 0,10,30.00,40.00,Thursday
148,29.62383518488899
596,0.6848717960845784
597,14.860236130391343
2,2, 5, 4, 0,10,40.00,50.00,Thursday
148,29.765256729465486
596,0.7541908581183979
597,16.97960425571604
2,2, 5, 4, 0,10,50.00,60.00,Thursday
148,29.80436893176861
596,0.8001954635622786
597,18.49980429227486
2,2, 5, 4, 0,11, 0.00,10.00,Thursday
148,29.87029787548744
596,0.8452683938992612
597,20.076046128262705
2,2, 5, 4, 0,11,10.00,20.00,Thursday
148,29.950441820016008
596,0.8893733661015747
597,21.700362287107965
2,2, 5, 4, 0,11,20.00,30.00,Thursday
148,30.02185480147645
596,0.9198040260677237
597,22.867501652746755
2,2, 5, 4, 0,11,30.00,40.00,Thursday
148,30.1401807449623
596,0.9704614889209695
597,24.892587638676177
2,2, 5, 4, 0,11,40.00,50.00,Thursday
148,30.24182776587589
596,1.0083899853393124
597,26.474249488106439
2,2, 5, 4, 0,11,50.00,60.00,Thursday
148,30.335291577674597
596,1.054585583599071
597,28.473595184821094
2,2, 5, 4, 0,12, 0.00,10.00,Thursday
148,30.477815848421196
596,1.1139240299647935
597,31.153716393187695
2,2, 5, 4, 0,12,10.00,20.00,Thursday
148,30.606429907775384
596,1.1587349842310353
597,33.256063053646119
2,2, 5, 4, 0,12,20.00,30.00,Thursday
148,30.715912799507345
596,1.2076374116030955
597,35.62152738258405
2,2, 5, 4, 0,12,30.00,40.00,Thursday
148,30.84907422266744
596,1.2559940473123586
597,38.02734654623527
2,2, 5, 4, 0,12,40.00,50.00,Thursday
148,30.877114817461675
596,1.2744246195069445
597,38.96030428151813
2,2, 5, 4, 0,12,50.00,60.00,Thursday
148,30.877064354856026
596,1.2798499287786434
597,39.23651488804357
2,2, 5, 4, 0,13, 0.00,10.00,Thursday
148,30.968670572671284
596,1.3199856828435806
597,41.30086913951788
2,2, 5, 4, 0,13,10.00,20.00,Thursday
148,31.11973523355264
596,1.3849403313011042
597,44.71086689981724
2,2, 5, 4, 0,13,20.00,30.00,Thursday
148,31.185770459939336
596,1.406094001220552
597,45.83686847194251
2,2, 5, 4, 0,13,30.00,40.00,Thursday
148,31.2458629267681
596,1.4318960784860249
597,47.218746699643897
2,2, 5, 4, 0,13,40.00,50.00,Thursday
148,31.291494739118549
596,1.4496173548176555
597,48.17250877576589
2,2, 5, 4, 0,13,50.00,60.00,Thursday
148,31.37485831002609
596,1.4835063506070825
597,50.00502101037109
2,2, 5, 4, 0,14, 0.00,10.00,Thursday
148,31.395444910855468
596,1.5076166107197904
597,51.314044446960618
2,2, 5, 4, 0,14,10.00,20.00,Thursday
148,31.41554300416317
596,1.5115954990613339
597,51.53038755276421
2,2, 5, 4, 0,14,20.00,30.00,Thursday
148,31.41754186709729
596,1.510944221510034
597,51.494970585856759
2,2, 5, 4, 0,14,30.00,40.00,Thursday
148,31.409381470266596
596,1.512263916217135
597,51.566738642907868
2,2, 5, 4, 0,14,40.00,50.00,Thursday
148,31.405798198923706
596,1.5064195608589187
597,51.24897289784364
2,2, 5, 4, 0,14,50.00,60.00,Thursday
148,31.509770157303387
596,1.565676583579745
597,54.47577268457787
2,2, 5, 4, 0,15, 0.00,10.00,Thursday
148,31.635784401196767
596,1.6016377604421375
597,56.43443579690792
2,2, 5, 4, 0,15,10.00,20.00,Thursday
148,31.608751462639125
596,1.595797362957785
597,56.11656512508094
2,2, 5, 4, 0,15,20.00,30.00,Thursday
148,31.604988702580689
596,1.5874860754411236
597,55.66401578904392
2,2, 5, 4, 0,15,30.00,40.00,Thursday
148,31.569541512708054
596,1.5736713055640204
597,54.91142858836814
2,2, 5, 4, 0,15,40.00,50.00,Thursday
148,31.55396993518999
596,1.582626753607714
597,55.399338328156527
2,2, 5, 4, 0,15,50.00,60.00,Thursday
148,31.623792413210546
596,1.6060174330513555
597,56.672715987873448
2,2, 5, 4, 0,16, 0.00,10.00,Thursday
148,31.752427032606254
596,1.651038059579082
597,59.11566856279106
2,2, 5, 4, 0,16,10.00,20.00,Thursday
148,31.852009110542576
596,1.6934982943895878
597,61.40328052120083
2,2, 5, 4, 0,16,20.00,30.00,Thursday
148,31.933038234498384
596,1.7190302392127433
597,62.767927104977768
2,2, 5, 4, 0,16,30.00,40.00,Thursday
148,31.95404839234658
596,1.7306698874607105
597,63.386755124004547
2,2, 5, 4, 0,16,40.00,50.00,Thursday
148,31.94492928328673
596,1.7117846456856976
597,62.381627900532269
2,2, 5, 4, 0,16,50.00,60.00,Thursday
148,31.90847194413695
596,1.6900466069221077
597,61.21809813473354
2,2, 5, 4, 0,17, 0.00,10.00,Thursday
148,31.873355009012447
596,1.7028836478449068
597,61.90599881164414
2,2, 5, 4, 0,17,10.00,20.00,Thursday
148,31.90261977457485
596,1.7144132932412127
597,62.52186721711704
2,2, 5, 4, 0,17,20.00,30.00,Thursday
148,31.84482332744456
596,1.692201971753896
597,61.3337512083094
2,2, 5, 4, 0,17,30.00,40.00,Thursday
148,31.883490025806578
596,1.7018384350154097
597,61.8500727866378
2,2, 5, 4, 0,17,40.00,50.00,Thursday
148,31.822404401348064
596,1.68004196048192
597,60.68050321653812
2,2, 5, 4, 0,17,50.00,60.00,Thursday
148,31.83839489543763
596,1.6493548313523566
597,59.024600333302
2,2, 5, 4, 0,18, 0.00,10.00,Thursday
148,31.72418861526614
596,1.6203159795394138
597,57.45000439374151
2,2, 5, 4, 0,18,10.00,20.00,Thursday
148,31.732901454240947
596,1.6224777437723093
597,57.56742367976567
2,2, 5, 4, 0,18,20.00,30.00,Thursday
148,31.748821655280496
596,1.6333353390496873
597,58.15671957473271
2,2, 5, 4, 0,18,30.00,40.00,Thursday
148,31.811384032119578
596,1.6471869976002316
597,58.90727688316589
2,2, 5, 4, 0,18,40.00,50.00,Thursday
148,31.844686805277143
596,1.6512661701162173
597,59.12800816600108
2,2, 5, 4, 0,18,50.00,60.00,Thursday
148,31.78442291392426
596,1.6220496201658823
597,57.544171762704738
2,2, 5, 4, 0,19, 0.00,10.00,Thursday
148,30.237090827113997
596,0.5467339501171292
597,11.256810718854326
2,2, 5, 4, 0,19,10.00,20.00,Thursday
148,29.794389529967533
596,0.40200003315302509
597,8.367344489164325
2,2, 5, 4, 0,19,20.00,30.00,Thursday
148,29.607491520010237
596,0.3486133607591002
597,7.5285458031906249
2,2, 5, 4, 0,19,30.00,40.00,Thursday
148,29.116744404227206
596,0.20142972847566743
597,5.841396426644195
2,2, 5, 4, 0,19,40.00,50.00,Thursday
148,28.93787901292967
596,0.12677442322605088
597,5.332931379244101
2,2, 5, 4, 0,19,50.00,60.00,Thursday
148,28.866638025206858
596,0.06779702559249748
597,5.0951681349573338
2,2, 5, 4, 0,20, 0.00,10.00,Thursday
148,28.79531736182169
596,0.01992457700345257
597,5.008218012547559
2,2, 5, 4, 0,20,10.00,20.00,Thursday
148,28.683488550976546
596,-0.035479544949955508
597,5.026059222916345
2,2, 5, 4, 0,20,20.00,30.00,Thursday
148,28.563947619091139
596,-0.09020117812965285
597,5.168485776791755
2,2, 5, 4, 0,20,30.00,40.00,Thursday
148,28.472996353908166
596,-0.1341291902877767
597,5.372713167079212
2,2, 5, 4, 0,20,40.00,50.00,Thursday
148,28.402567701978059
596,-0.1723516197156755
597,5.615716787971209
2,2, 5, 4, 0,20,50.00,60.00,Thursday
148,28.33843985567685
596,-0.20062491816876894
597,5.834674722455986
2,2, 5, 4, 0,21, 0.00,10.00,Thursday
148,28.284179703612446
596,-0.22729750997026205
597,6.071883298578683
2,2, 5, 4, 0,21,10.00,20.00,Thursday
148,28.248942519597603
596,-0.24723534022651098
597,6.2686785131033819
2,2, 5, 4, 0,21,20.00,30.00,Thursday
148,28.21377974051443
596,-0.27266323173947468
597,6.543906594802692
2,2, 5, 4, 0,21,30.00,40.00,Thursday
148,28.182512589606526
596,-0.2879431340096514
597,6.722396003866166
2,2, 5, 4, 0,21,40.00,50.00,Thursday
148,28.16273190793747
596,-0.30445187073032956
597,6.926318029108131
2,2, 5, 4, 0,21,50.00,60.00,Thursday
148,28.120742933164875
596,-0.33100519878562109
597,7.278507722800612
2,2, 5, 4, 0,22, 0.00,10.00,Thursday
148,28.073910829813558
596,-0.355434719383183
597,7.628951548346393
2,2, 5, 4, 0,22,10.00,20.00,Thursday
148,28.024934753827414
596,-0.37495755750803386
597,7.927264204414044
2,2, 5, 4, 0,22,20.00,30.00,Thursday
148,27.940192952640176
596,-0.4165209559188037
597,8.61656042070905
2,2, 5, 4, 0,22,30.00,40.00,Thursday
148,27.906167511726733
596,-0.4244528631022128
597,8.756507958187953
2,2, 5, 4, 0,22,40.00,50.00,Thursday
148,27.904138492455073