Program Version,EnergyPlus, Version 9.2.0-921312fa1d, YMD=2021.12.07 18:48
1,5,Environment Title[],Latitude[deg],Longitude[deg],Time Zone[],Elevation[m]
2,8,Day of Simulation[],Month[],Day of Month[],DST Indicator[1=yes 0=no],Hour[],StartMinute[],EndMinute[],DayType
3,5,Cumulative Day of Simulation[],Month[],Day of Month[],DST Indicator[1=yes 0=no],DayType  ! When Daily Report Variables Requested
4,2,Cumulative Days of Simulation[],Month[]  ! When Monthly Report Variables Requested
5,1,Cumulative Days of Simulation[] ! When Run Period Report Variables Requested
6,1,Calendar Year of Simulation[] ! When Annual Report Variables Requested
7,9,Environment,Site Outdoor Air Drybulb Temperature [C] !Monthly [Value,Min,Day,Hour,Minute,Max,Day,Hour,Minute]
8,1,Environment,Site Outdoor Air Wetbulb Temperature [C] !TimeStep
95,1,THERMAL ZONE 1,Zone Air Temperature [C] !Hourly
96,7,THERMAL ZONE 1,Zone Air Relative Humidity [%] !Daily [Value,Min,Hour,Minute,Max,Hour,Minute]
135,1,THERMAL ZONE 2,Zone Air Temperature [C] !Hourly
136,7,THERMAL ZONE 2,Zone Air Relative Humidity [%] !Daily [Value,Min,Hour,Minute,Max,Hour,Minute]
175,1,THERMAL ZONE 3,Zone Air Temperature [C] !Hourly
176,7,THERMAL ZONE 3,Zone Air Relative Humidity [%] !Daily [Value,Min,Hour,Minute,Max,Hour,Minute]
215,1,THERMAL ZONE 4,Zone Air Temperature [C] !Hourly
216,7,THERMAL ZONE 4,Zone Air Relative Humidity [%] !Daily [Value,Min,Hour,Minute,Max,Hour,Minute]
255,1,THERMAL ZONE 5,Zone Air Temperature [C] !Hourly
256,7,THERMAL ZONE 5,Zone Air Relative Humidity [%] !Daily [Value,Min,Hour,Minute,Max,Hour,Minute]
295,1,THERMAL ZONE 6,Zone Air Temperature [C] !Hourly
296,7,THERMAL ZONE 6,Zone Air Relative Humidity [%] !Daily [Value,Min,Hour,Minute,Max,Hour,Minute]
End of Data Dictionary
1,RUN PERIOD 1,  18.85, -99.14,  -6.00,1280.00
2,1, 5, 3, 0, 1, 0.00,10.00,Wednesday
8,15.551453857809504
2,1, 5, 3, 0, 1,10.00,20.00,Wednesday
8,15.551341657334709
2,1, 5, 3, 0, 1,20.00,30.00,Wednesday
8,15.551141131488416
2,1, 5, 3, 0, 1,30.00,40.00,Wednesday
8,15.388477976376653
2,1, 5, 3, 0, 1,40.00,50.00,Wednesday
8,15.306586238077543
2,1, 5, 3, 0, 1,50.00,60.00,Wednesday
8,15.388878812057376
2,1, 5, 3, 0, 1, 0.00,60.00,Wednesday
95,27.016607938105979
135,22.56570412175715
175,23.002258959728214
215,27.19333274274371
255,22.477177439201353
295,26.93564917806322
2,1, 5, 3, 0, 2, 0.00,10.00,Wednesday
8,15.143756146820773
2,1, 5, 3, 0, 2,10.00,20.00,Wednesday
8,15.224833002983646
2,1, 5, 3, 0, 2,20.00,30.00,Wednesday
8,15.143032792332589
2,1, 5, 3, 0, 2,30.00,40.00,Wednesday
8,15.062181974924576
2,1, 5, 3, 0, 2,40.00,50.00,Wednesday
8,15.142921891712506
2,1, 5, 3, 0, 2,50.00,60.00,Wednesday
8,15.141611257151391
2,1, 5, 3, 0, 2, 0.00,60.00,Wednesday
95,26.52651393066941
135,22.213041496751676
175,22.65771857784418
215,26.69911659799821
255,22.13103258194758
295,26.447732495566226
2,1, 5, 3, 0, 3, 0.00,10.00,Wednesday
8,15.137520067395638
2,1, 5, 3, 0, 3,10.00,20.00,Wednesday
8,14.895974322461563
2,1, 5, 3, 0, 3,20.00,30.00,Wednesday
8,14.895835228343048
2,1, 5, 3, 0, 3,30.00,40.00,Wednesday
8,14.814025125481735
2,1, 5, 3, 0, 3,40.00,50.00,Wednesday
8,14.973131683911776
2,1, 5, 3, 0, 3,50.00,60.00,Wednesday
8,14.80835904908717
2,1, 5, 3, 0, 3, 0.00,60.00,Wednesday
95,26.153949513324723
135,21.911867112462315
175,22.36624173525023
215,26.33052020687917
255,21.842042458011617
295,26.076923779654736
2,1, 5, 3, 0, 4, 0.00,10.00,Wednesday
8,14.808464530288152
2,1, 5, 3, 0, 4,10.00,20.00,Wednesday
8,14.890851798553883
2,1, 5, 3, 0, 4,20.00,30.00,Wednesday
8,14.644033286387196
2,1, 5, 3, 0, 4,30.00,40.00,Wednesday
8,14.561791567834636
2,1, 5, 3, 0, 4,40.00,50.00,Wednesday
8,14.159172251289882
2,1, 5, 3, 0, 4,50.00,60.00,Wednesday
8,14.24176773048506
2,1, 5, 3, 0, 4, 0.00,60.00,Wednesday
95,25.72904442353693
135,21.639378701947498
175,22.099081170891667
215,25.906574974326138
255,21.581451699036437
295,25.655651117213468
2,1, 5, 3, 0, 5, 0.00,10.00,Wednesday
8,14.23319742690719
2,1, 5, 3, 0, 5,10.00,20.00,Wednesday
8,14.221041848974523
2,1, 5, 3, 0, 5,20.00,30.00,Wednesday
8,14.303499826812514
2,1, 5, 3, 0, 5,30.00,40.00,Wednesday
8,14.220722272063318
2,1, 5, 3, 0, 5,40.00,50.00,Wednesday
8,14.468544648108623
2,1, 5, 3, 0, 5,50.00,60.00,Wednesday
8,14.22120468839489
2,1, 5, 3, 0, 5, 0.00,60.00,Wednesday
95,25.293382537086435
135,21.374894098813795
175,21.836306850421257
215,25.46893843086231
255,21.32844957411592
295,25.22305415577598
2,1, 5, 3, 0, 6, 0.00,10.00,Wednesday
8,14.52457109151908
2,1, 5, 3, 0, 6,10.00,20.00,Wednesday
8,13.93996501632181
2,1, 5, 3, 0, 6,20.00,30.00,Wednesday
8,14.233214293896257
2,1, 5, 3, 0, 6,30.00,40.00,Wednesday
8,13.869348571340229
2,1, 5, 3, 0, 6,40.00,50.00,Wednesday
8,13.954510406180012
2,1, 5, 3, 0, 6,50.00,60.00,Wednesday
8,13.86976310782085
2,1, 5, 3, 0, 6, 0.00,60.00,Wednesday
95,24.783781430173965
135,21.101736276820568
175,21.563318707221148
215,24.956095022548188
255,21.06416328376896
295,24.717821543822354
2,1, 5, 3, 0, 7, 0.00,10.00,Wednesday
8,13.955390217184088
2,1, 5, 3, 0, 7,10.00,20.00,Wednesday
8,14.065362046439093
2,1, 5, 3, 0, 7,20.00,30.00,Wednesday
8,14.097405389686218
2,1, 5, 3, 0, 7,30.00,40.00,Wednesday
8,13.785365950146265
2,1, 5, 3, 0, 7,40.00,50.00,Wednesday
8,14.01278115470141
2,1, 5, 3, 0, 7,50.00,60.00,Wednesday
8,13.836161250573142
2,1, 5, 3, 0, 7, 0.00,60.00,Wednesday
95,24.37054209933171
135,20.86187944249645
175,21.30963413357558
215,24.540928515459944
255,20.831016555477999
295,24.308497017679757
2,1, 5, 3, 0, 8, 0.00,10.00,Wednesday
8,14.380147198337724
2,1, 5, 3, 0, 8,10.00,20.00,Wednesday
8,14.088219316544447
2,1, 5, 3, 0, 8,20.00,30.00,Wednesday
8,14.442644748223918
2,1, 5, 3, 0, 8,30.00,40.00,Wednesday
8,14.553554990943724
2,1, 5, 3, 0, 8,40.00,50.00,Wednesday
8,14.897405055141685
2,1, 5, 3, 0, 8,50.00,60.00,Wednesday
8,14.96768036440707
2,1, 5, 3, 0, 8, 0.00,60.00,Wednesday
95,24.413832171436345
135,21.201318567010245
175,21.487664303288754
215,24.585622020234653
255,21.214410765449768
295,24.357025088873145
2,1, 5, 3, 0, 9, 0.00,10.00,Wednesday
8,16.084534284863986
2,1, 5, 3, 0, 9,10.00,20.00,Wednesday
8,15.908940852667075
2,1, 5, 3, 0, 9,20.00,30.00,Wednesday
8,15.987729433634302
2,1, 5, 3, 0, 9,30.00,40.00,Wednesday
8,16.04598534602531
2,1, 5, 3, 0, 9,40.00,50.00,Wednesday
8,16.360640757929774
2,1, 5, 3, 0, 9,50.00,60.00,Wednesday
8,16.227055965306076
2,1, 5, 3, 0, 9, 0.00,60.00,Wednesday
95,25.19277220267493
135,22.030993892090519
175,22.320276094246969
215,25.365969571409907
255,22.11000567535828
295,25.13960293785341
2,1, 5, 3, 0,10, 0.00,10.00,Wednesday
8,16.425597228528735
2,1, 5, 3, 0,10,10.00,20.00,Wednesday
8,16.657649938044018
2,1, 5, 3, 0,10,20.00,30.00,Wednesday
8,16.734822756327124
2,1, 5, 3, 0,10,30.00,40.00,Wednesday
8,16.812284457403036
2,1, 5, 3, 0,10,40.00,50.00,Wednesday
8,17.005343351215278
2,1, 5, 3, 0,10,50.00,60.00,Wednesday
8,16.42598673345294
2,1, 5, 3, 0,10, 0.00,60.00,Wednesday
95,26.094510839259955
135,22.971959813674347
175,23.256955184344937
215,26.2643748097011
255,23.080670354128349
295,26.043830781484194
2,1, 5, 3, 0,11, 0.00,10.00,Wednesday
8,16.269366096613419
2,1, 5, 3, 0,11,10.00,20.00,Wednesday
8,17.000714743449615
2,1, 5, 3, 0,11,20.00,30.00,Wednesday
8,16.8286651814921
2,1, 5, 3, 0,11,30.00,40.00,Wednesday
8,16.903409143334245
2,1, 5, 3, 0,11,40.00,50.00,Wednesday
8,16.567578919769458
2,1, 5, 3, 0,11,50.00,60.00,Wednesday
8,16.924488555173526
2,1, 5, 3, 0,11, 0.00,60.00,Wednesday
95,26.90255354733875
135,23.811109761901578
175,24.00512285837227
215,27.072817121937317
255,23.910976693655475
295,26.84919305332467
2,1, 5, 3, 0,12, 0.00,10.00,Wednesday
8,17.38436596010333
2,1, 5, 3, 0,12,10.00,20.00,Wednesday
8,16.587470454218768
2,1, 5, 3, 0,12,20.00,30.00,Wednesday
8,17.611475669832904
2,1, 5, 3, 0,12,30.00,40.00,Wednesday
8,17.014839776584755
2,1, 5, 3, 0,12,40.00,50.00,Wednesday
8,17.28403000859513
2,1, 5, 3, 0,12,50.00,60.00,Wednesday
8,17.47140027560002
2,1, 5, 3, 0,12, 0.00,60.00,Wednesday
95,27.996549402892304
135,24.6807596723343
175,24.78758056251623
215,28.16361209228526
255,24.750313880653154
295,27.939381065546426
2,1, 5, 3, 0,13, 0.00,10.00,Wednesday
8,18.105587514437983
2,1, 5, 3, 0,13,10.00,20.00,Wednesday
8,17.922266239540126
2,1, 5, 3, 0,13,20.00,30.00,Wednesday
8,17.538895725809714
2,1, 5, 3, 0,13,30.00,40.00,Wednesday
8,17.679645443270034
2,1, 5, 3, 0,13,40.00,50.00,Wednesday
8,17.25937754212511
2,1, 5, 3, 0,13,50.00,60.00,Wednesday
8,17.672567674795596
2,1, 5, 3, 0,13, 0.00,60.00,Wednesday
95,29.04581045616493
135,25.428561203939255
175,25.482172943358337
215,29.218475204534035
255,25.460960977592266
295,28.984168285082466
2,1, 5, 3, 0,14, 0.00,10.00,Wednesday
8,17.877908782680437
2,1, 5, 3, 0,14,10.00,20.00,Wednesday
8,18.27061245135181
2,1, 5, 3, 0,14,20.00,30.00,Wednesday
8,18.130556233782455
2,1, 5, 3, 0,14,30.00,40.00,Wednesday
8,17.738630972433709
2,1, 5, 3, 0,14,40.00,50.00,Wednesday
8,18.30269933203036
2,1, 5, 3, 0,14,50.00,60.00,Wednesday
8,18.780949371998383
2,1, 5, 3, 0,14, 0.00,60.00,Wednesday
95,29.909640482486684
135,26.039045161855609
175,26.05975583990143
215,30.081368936747109
255,26.038456653517416
295,29.841705348495187
2,1, 5, 3, 0,15, 0.00,10.00,Wednesday
8,17.87348433688188
2,1, 5, 3, 0,15,10.00,20.00,Wednesday
8,18.025890934353837
2,1, 5, 3, 0,15,20.00,30.00,Wednesday
8,18.298112645330776
2,1, 5, 3, 0,15,30.00,40.00,Wednesday
8,18.362939717583456
2,1, 5, 3, 0,15,40.00,50.00,Wednesday
8,18.09646727497999
2,1, 5, 3, 0,15,50.00,60.00,Wednesday
8,18.36633539667435
2,1, 5, 3, 0,15, 0.00,60.00,Wednesday
95,30.580011927349774
135,26.7909390309142
175,26.787757023381017
215,30.752427699205787
255,26.7893900164639
295,30.508303569352468
2,1, 5, 3, 0,16, 0.00,10.00,Wednesday
8,18.492763882764188
2,1, 5, 3, 0,16,10.00,20.00,Wednesday
8,18.567589048826084
2,1, 5, 3, 0,16,20.00,30.00,Wednesday
8,18.09413197715125
2,1, 5, 3, 0,16,30.00,40.00,Wednesday
8,18.091251873788019
2,1, 5, 3, 0,16,40.00,50.00,Wednesday
8,17.66630739206459
2,1, 5, 3, 0,16,50.00,60.00,Wednesday
8,17.5522794612126
2,1, 5, 3, 0,16, 0.00,60.00,Wednesday
95,31.193724843149508
135,27.306008566950607
175,27.294940835353576
215,31.366544860600756
255,27.308433232185807
295,31.12002322331084
2,1, 5, 3, 0,17, 0.00,10.00,Wednesday
8,18.67787861679875
2,1, 5, 3, 0,17,10.00,20.00,Wednesday
8,17.492589763076479
2,1, 5, 3, 0,17,20.00,30.00,Wednesday
8,15.973554247795642
2,1, 5, 3, 0,17,30.00,40.00,Wednesday
8,16.39863773818785
2,1, 5, 3, 0,17,40.00,50.00,Wednesday
8,15.975400546780245
2,1, 5, 3, 0,17,50.00,60.00,Wednesday
8,16.537080416494566
2,1, 5, 3, 0,17, 0.00,60.00,Wednesday
95,30.42176275790277
135,26.43653881716314
175,26.480139903465888
215,30.597396387825599
255,26.329104786712198
295,30.34900412786554
2,1, 5, 3, 0,18, 0.00,10.00,Wednesday
8,17.413568262814235
2,1, 5, 3, 0,18,10.00,20.00,Wednesday
8,17.877267495404259
2,1, 5, 3, 0,18,20.00,30.00,Wednesday
8,17.298168922012505
2,1, 5, 3, 0,18,30.00,40.00,Wednesday
8,17.238544881284559
2,1, 5, 3, 0,18,40.00,50.00,Wednesday
8,17.411209407413059
2,1, 5, 3, 0,18,50.00,60.00,Wednesday
8,18.26083701589071
2,1, 5, 3, 0,18, 0.00,60.00,Wednesday
95,29.804175454075005
135,25.529897309136019
175,25.6282694571115
215,29.971524210935845
255,25.329659972584279
295,29.724978021623785
2,1, 5, 3, 0,19, 0.00,10.00,Wednesday
8,18.106504349580669
2,1, 5, 3, 0,19,10.00,20.00,Wednesday
8,18.130963743935774
2,1, 5, 3, 0,19,20.00,30.00,Wednesday
8,18.260033075273005
2,1, 5, 3, 0,19,30.00,40.00,Wednesday
8,18.510726053614574
2,1, 5, 3, 0,19,40.00,50.00,Wednesday
8,18.35456664906671
2,1, 5, 3, 0,19,50.00,60.00,Wednesday
8,18.275901701402739
2,1, 5, 3, 0,19, 0.00,60.00,Wednesday
95,29.623622384484034
135,25.064943513444978
175,25.231991913311544
215,29.796936855943149
255,24.870587047095659
295,29.543138490858398
2,1, 5, 3, 0,20, 0.00,10.00,Wednesday
8,18.395843731157848
2,1, 5, 3, 0,20,10.00,20.00,Wednesday
8,18.546450455915826
2,1, 5, 3, 0,20,20.00,30.00,Wednesday
8,18.416212247884496
2,1, 5, 3, 0,20,30.00,40.00,Wednesday
8,18.524072153132818
2,1, 5, 3, 0,20,40.00,50.00,Wednesday
8,18.2809353978119
2,1, 5, 3, 0,20,50.00,60.00,Wednesday
8,18.03807785993693
2,1, 5, 3, 0,20, 0.00,60.00,Wednesday
95,29.18051424289962
135,24.399852276339816
175,24.64894617072629
215,29.35547145622472
255,24.20253942295011
295,29.102743972913897
2,1, 5, 3, 0,21, 0.00,10.00,Wednesday
8,17.611833175799846
2,1, 5, 3, 0,21,10.00,20.00,Wednesday
8,17.101574985785378
2,1, 5, 3, 0,21,20.00,30.00,Wednesday
8,17.134913313455639
2,1, 5, 3, 0,21,30.00,40.00,Wednesday
8,16.868117359066976
2,1, 5, 3, 0,21,40.00,50.00,Wednesday
8,17.215036465325757
2,1, 5, 3, 0,21,50.00,60.00,Wednesday
8,16.790569324118239
2,1, 5, 3, 0,21, 0.00,60.00,Wednesday
95,28.635378461768558
135,23.89950379161847
175,24.20669671323411
215,28.802776709480616
255,23.721292374538125
295,28.560597768823987
2,1, 5, 3, 0,22, 0.00,10.00,Wednesday
8,16.947512915093357
2,1, 5, 3, 0,22,10.00,20.00,Wednesday
8,17.165744374427069
2,1, 5, 3, 0,22,20.00,30.00,Wednesday
8,16.506303404613687
2,1, 5, 3, 0,22,30.00,40.00,Wednesday
8,16.50686240218422
2,1, 5, 3, 0,22,40.00,50.00,Wednesday
8,16.58631124954087
2,1, 5, 3, 0,22,50.00,60.00,Wednesday
8,16.611896233041589
2,1, 5, 3, 0,22, 0.00,60.00,Wednesday
95,28.1840113290844
135,23.532309962726825
175,23.88726997749806
215,28.35249822582929
255,23.385412859420638
295,28.106814144717235
2,1, 5, 3, 0,23, 0.00,10.00,Wednesday
8,16.16726578895277
2,1, 5, 3, 0,23,10.00,20.00,Wednesday
8,16.183332648534035
2,1, 5, 3, 0,23,20.00,30.00,Wednesday
8,16.482093079346816
2,1, 5, 3, 0,23,30.00,40.00,Wednesday
8,16.273597025284319
2,1, 5, 3, 0,23,40.00,50.00,Wednesday
8,15.907120528940938
2,1, 5, 3, 0,23,50.00,60.00,Wednesday
8,15.76525211529764
2,1, 5, 3, 0,23, 0.00,60.00,Wednesday
95,27.846049171095605
135,23.189942506982125
175,23.584148909939619
215,28.020094252017029
255,23.065293401300797
295,27.76629339491556
2,1, 5, 3, 0,24, 0.00,10.00,Wednesday
8,15.84181482484228
2,1, 5, 3, 0,24,10.00,20.00,Wednesday
8,15.652435718586
2,1, 5, 3, 0,24,20.00,30.00,Wednesday
8,15.843085857268405
2,1, 5, 3, 0,24,30.00,40.00,Wednesday
8,15.7283749704226
2,1, 5, 3, 0,24,40.00,50.00,Wednesday
8,15.536073378855662
2,1, 5, 3, 0,24,50.00,60.00,Wednesday
8,15.61280390914966
2,1, 5, 3, 0,24, 0.00,60.00,Wednesday
95,27.60520527225816
135,22.960251708438027
175,23.37250107475951
215,27.78208184294516
255,22.857871848234823
295,27.525843159343976
3,1, 5, 3, 0,Wednesday
96,36.69722377034096,29.37011677435767,16,50,44.488969265729028, 7,50
136,46.44154702474521,36.79910557287569,16,30,54.74602730004532, 7,50
176,45.64871074944256,36.833075900934698,16,40,53.28957180087704, 7,50
216,36.32833863420618,29.082840790982833,16,50,44.040518243408559, 7,50
256,46.58620648259538,36.78048143357713,16,30,54.85168987970216, 7,40
296,36.84642308028102,29.493133937465584,16,50,44.650311967402398, 7,50
2,2, 5, 4, 0, 1, 0.00,10.00,Thursday
8,16.032217382829
2,2, 5, 4, 0, 1,10.00,20.00,Thursday
8,15.537404076692644
2,2, 5, 4, 0, 1,20.00,30.00,Thursday
8,15.646594622879359
2,2, 5, 4, 0, 1,30.00,40.00,Thursday
8,15.779471805268847
2,2, 5, 4, 0, 1,40.00,50.00,Thursday
8,15.67554074784914
2,2, 5, 4, 0, 1,50.00,60.00,Thursday
8,15.491962996864214
2,2, 5, 4, 0, 1, 0.00,60.00,Thursday
95,27.325040583293256
135,22.724873337574154
175,23.154868943634829
215,27.505943026727235
255,22.640454885602208
295,27.24453901942258
2,2, 5, 4, 0, 2, 0.00,10.00,Thursday
8,15.492319967793233
2,2, 5, 4, 0, 2,10.00,20.00,Thursday
8,15.414190273976429
2,2, 5, 4, 0, 2,20.00,30.00,Thursday
8,15.675127511968523
2,2, 5, 4, 0, 2,30.00,40.00,Thursday
8,15.414366537942929
2,2, 5, 4, 0, 2,40.00,50.00,Thursday
8,15.414014307196691
2,2, 5, 4, 0, 2,50.00,60.00,Thursday
8,15.336888599377512
2,2, 5, 4, 0, 2, 0.00,60.00,Thursday
95,27.05342052929471
135,22.484102680156544
175,22.921402167834918
215,27.236438751349188
255,22.409287882858974
295,26.972758870022465
2,2, 5, 4, 0, 3, 0.00,10.00,Thursday
8,15.363728740322616
2,2, 5, 4, 0, 3,10.00,20.00,Thursday
8,15.230966590427649
2,2, 5, 4, 0, 3,20.00,30.00,Thursday
8,15.171309360293919
2,2, 5, 4, 0, 3,30.00,40.00,Thursday
8,15.186282568805315
2,2, 5, 4, 0, 3,40.00,50.00,Thursday
8,15.278816355868747
2,2, 5, 4, 0, 3,50.00,60.00,Thursday
8,15.04754967894262
2,2, 5, 4, 0, 3, 0.00,60.00,Thursday
95,26.672466634315886
135,22.24119211517423
175,22.682454608848308
215,26.853195307685764
255,22.177487915812426
295,26.592772385108636
2,2, 5, 4, 0, 4, 0.00,10.00,Thursday
8,15.053486454727198
2,2, 5, 4, 0, 4,10.00,20.00,Thursday
8,15.448778819927055
2,2, 5, 4, 0, 4,20.00,30.00,Thursday
8,15.042624816412147
2,2, 5, 4, 0, 4,30.00,40.00,Thursday
8,15.033556378098373
2,2, 5, 4, 0, 4,40.00,50.00,Thursday
8,14.485214102876816
2,2, 5, 4, 0, 4,50.00,60.00,Thursday
8,15.125544340606386
2,2, 5, 4, 0, 4, 0.00,60.00,Thursday
95,26.16192821784448
135,21.87824388386596
175,22.326434267814148
215,26.339244945936
255,21.81738488615139
295,26.083957303959918
2,2, 5, 4, 0, 5, 0.00,10.00,Thursday
8,14.712674299416
2,2, 5, 4, 0, 5,10.00,20.00,Thursday
8,14.473728325941364
2,2, 5, 4, 0, 5,20.00,30.00,Thursday
8,14.644391307540774
2,2, 5, 4, 0, 5,30.00,40.00,Thursday
8,14.802655243139457
2,2, 5, 4, 0, 5,40.00,50.00,Thursday
8,14.62942904325202
2,2, 5, 4, 0, 5,50.00,60.00,Thursday
8,14.31036297063091
2,2, 5, 4, 0, 5, 0.00,60.00,Thursday
95,25.702917743685636
135,21.595711951054765
175,22.04458501669433
215,25.876274104434175
255,21.540674444083238
295,25.628867742976796
2,2, 5, 4, 0, 6, 0.00,10.00,Thursday
8,14.70143460791386
2,2, 5, 4, 0, 6,10.00,20.00,Thursday
8,14.520678818929957
2,2, 5, 4, 0, 6,20.00,30.00,Thursday
8,14.587681385750879
2,2, 5, 4, 0, 6,30.00,40.00,Thursday
8,14.398998401926674
2,2, 5, 4, 0, 6,40.00,50.00,Thursday
8,14.251397752162989
2,2, 5, 4, 0, 6,50.00,60.00,Thursday
8,14.437118175711309
2,2, 5, 4, 0, 6, 0.00,60.00,Thursday
95,25.208130577187906
135,21.32186227186845
175,21.77376746052668
215,25.378079192502168
255,21.277479907406418
295,25.138745759129806
2,2, 5, 4, 0, 7, 0.00,10.00,Thursday
8,14.369425938963945
2,2, 5, 4, 0, 7,10.00,20.00,Thursday
8,14.228605274294474
2,2, 5, 4, 0, 7,20.00,30.00,Thursday
8,14.619455314729312
2,2, 5, 4, 0, 7,30.00,40.00,Thursday
8,14.454058246816265
2,2, 5, 4, 0, 7,40.00,50.00,Thursday
8,14.311867834036607
2,2, 5, 4, 0, 7,50.00,60.00,Thursday
8,14.467293520970332
2,2, 5, 4, 0, 7, 0.00,60.00,Thursday
95,24.920446233353365
135,21.156935758380816
175,21.599804098639124
215,25.092386574902095
255,21.124393313660929
295,24.85411213740396
2,2, 5, 4, 0, 8, 0.00,10.00,Thursday
8,14.621156514024449
2,2, 5, 4, 0, 8,10.00,20.00,Thursday
8,14.715835117674433
2,2, 5, 4, 0, 8,20.00,30.00,Thursday
8,14.888777673767966
2,2, 5, 4, 0, 8,30.00,40.00,Thursday
8,15.217444822937905
2,2, 5, 4, 0, 8,40.00,50.00,Thursday
8,14.975377688993806
2,2, 5, 4, 0, 8,50.00,60.00,Thursday
8,15.032012770818904
2,2, 5, 4, 0, 8, 0.00,60.00,Thursday
95,24.92761801946544
135,21.451474555491378
175,21.78709110631176
215,25.100959246380176
255,21.464278708748208
295,24.86660900782798
2,2, 5, 4, 0, 9, 0.00,10.00,Thursday
8,15.50779511247116
2,2, 5, 4, 0, 9,10.00,20.00,Thursday
8,15.212751646814045
2,2, 5, 4, 0, 9,20.00,30.00,Thursday
8,15.386446401604453
2,2, 5, 4, 0, 9,30.00,40.00,Thursday
8,15.846111184880409
2,2, 5, 4, 0, 9,40.00,50.00,Thursday
8,15.960067121910031
2,2, 5, 4, 0, 9,50.00,60.00,Thursday
8,16.037740860325337
2,2, 5, 4, 0, 9, 0.00,60.00,Thursday
95,25.44470612240615
135,22.145466712939478
175,22.45666975512758
215,25.616531582265727
255,22.22335916271736
295,25.386975832187415
2,2, 5, 4, 0,10, 0.00,10.00,Thursday
8,15.6936219861432
2,2, 5, 4, 0,10,10.00,20.00,Thursday
8,15.541343518867944
2,2, 5, 4, 0,10,20.00,30.00,Thursday
8,15.734543360773533
2,2, 5, 4, 0,10,30.00,40.00,Thursday
8,15.467208297897495
2,2, 5, 4, 0,10,40.00,50.00,Thursday
8,15.810667157403126
2,2, 5, 4, 0,10,50.00,60.00,Thursday
8,15.843905632386019
2,2, 5, 4, 0,10, 0.00,60.00,Thursday
95,25.805738526504589
135,22.788435906559866
175,23.06897909988207
215,25.978545904489154
255,22.898558508550825
295,25.750262818806463
2,2, 5, 4, 0,11, 0.00,10.00,Thursday
8,16.021217027985736
2,2, 5, 4, 0,11,10.00,20.00,Thursday
8,16.24597389807649
2,2, 5, 4, 0,11,20.00,30.00,Thursday
8,16.26568367102298
2,2, 5, 4, 0,11,30.00,40.00,Thursday
8,16.20722453968999
2,2, 5, 4, 0,11,40.00,50.00,Thursday
8,16.649035705115005
2,2, 5, 4, 0,11,50.00,60.00,Thursday
8,16.51182393092556
2,2, 5, 4, 0,11, 0.00,60.00,Thursday
95,26.46139260557551
135,23.63616975826531
175,23.82746143460449
215,26.618831340004254
255,23.763031216301873
295,26.40670518165936
2,2, 5, 4, 0,12, 0.00,10.00,Thursday
8,16.578901335697084
2,2, 5, 4, 0,12,10.00,20.00,Thursday
8,17.223993440697826
2,2, 5, 4, 0,12,20.00,30.00,Thursday
8,17.25681002169435
2,2, 5, 4, 0,12,30.00,40.00,Thursday
8,17.491656605887017
2,2, 5, 4, 0,12,40.00,50.00,Thursday
8,17.72649884713628
2,2, 5, 4, 0,12,50.00,60.00,Thursday
8,17.34859164291489
2,2, 5, 4, 0,12, 0.00,60.00,Thursday
95,27.82002066162744
135,24.710773195960653
175,24.81433224911736
215,27.985764094000534
255,24.83359784339015
295,27.76363161641781
2,2, 5, 4, 0,13, 0.00,10.00,Thursday
8,17.32460979665721
2,2, 5, 4, 0,13,10.00,20.00,Thursday
8,17.956240643112769
2,2, 5, 4, 0,13,20.00,30.00,Thursday
8,17.848842830515819
2,2, 5, 4, 0,13,30.00,40.00,Thursday
8,17.41590293983548
2,2, 5, 4, 0,13,40.00,50.00,Thursday
8,17.415700165794094
2,2, 5, 4, 0,13,50.00,60.00,Thursday
8,17.481572314505489
2,2, 5, 4, 0,13, 0.00,60.00,Thursday
95,28.868037277430834
135,25.712705235723435
175,25.733137484302238
215,29.028224135326128
255,25.811058942951737
295,28.81196486474245
2,2, 5, 4, 0,14, 0.00,10.00,Thursday
8,17.8906217219713
2,2, 5, 4, 0,14,10.00,20.00,Thursday
8,17.62978280349689
2,2, 5, 4, 0,14,20.00,30.00,Thursday
8,17.560055592751696
2,2, 5, 4, 0,14,30.00,40.00,Thursday
8,17.56036703686657
2,2, 5, 4, 0,14,40.00,50.00,Thursday
8,17.29737581796852
2,2, 5, 4, 0,14,50.00,60.00,Thursday
8,17.696865814916867
2,2, 5, 4, 0,14, 0.00,60.00,Thursday
95,29.545373090943746
135,26.4798770196204
175,26.430006641375596
215,29.69350874457972
255,26.56285877660311
295,29.484176095578254
2,2, 5, 4, 0,15, 0.00,10.00,Thursday
8,17.963224393929126
2,2, 5, 4, 0,15,10.00,20.00,Thursday
8,17.360323387142367
2,2, 5, 4, 0,15,20.00,30.00,Thursday
8,17.360007449440624
2,2, 5, 4, 0,15,30.00,40.00,Thursday
8,17.291551867297195
2,2, 5, 4, 0,15,40.00,50.00,Thursday
8,17.882736292496888
2,2, 5, 4, 0,15,50.00,60.00,Thursday
8,17.550487934070988
2,2, 5, 4, 0,15, 0.00,60.00,Thursday
95,29.99704195743952
135,26.87228440026698
175,26.78721737540155
215,30.1335682811838
255,26.90361414782707
295,29.93384923827122
2,2, 5, 4, 0,16, 0.00,10.00,Thursday
8,17.821607587729028
2,2, 5, 4, 0,16,10.00,20.00,Thursday
8,18.355015006467668
2,2, 5, 4, 0,16,20.00,30.00,Thursday
8,17.942487468971995
2,2, 5, 4, 0,16,30.00,40.00,Thursday
8,17.791352702201946
2,2, 5, 4, 0,16,40.00,50.00,Thursday
8,17.875748210589767
2,2, 5, 4, 0,16,50.00,60.00,Thursday
8,17.47815192912298
2,2, 5, 4, 0,16, 0.00,60.00,Thursday
95,30.74683728495118
135,27.256665161007068
175,27.14807400307787
215,30.88370772358985
255,27.26549106796146
295,30.678086797262613
2,2, 5, 4, 0,17, 0.00,10.00,Thursday
8,17.789097608287393
2,2, 5, 4, 0,17,10.00,20.00,Thursday
8,18.26972542866572
2,2, 5, 4, 0,17,20.00,30.00,Thursday
8,18.217559589691175
2,2, 5, 4, 0,17,30.00,40.00,Thursday
8,18.084052527532746
2,2, 5, 4, 0,17,40.00,50.00,Thursday
8,17.883847483434289
2,2, 5, 4, 0,17,50.00,60.00,Thursday
8,17.749646979910957
2,2, 5, 4, 0,17, 0.00,60.00,Thursday
95,30.930824499084407
135,27.177007727235816
175,27.08439259027041
215,31.06319665809791
255,27.16810038762417
295,30.860711554720948
2,2, 5, 4, 0,18, 0.00,10.00,Thursday
8,17.614398632643554
2,2, 5, 4, 0,18,10.00,20.00,Thursday
8,17.615040382447249
2,2, 5, 4, 0,18,20.00,30.00,Thursday
8,17.68175319241165
2,2, 5, 4, 0,18,30.00,40.00,Thursday
8,17.746547739138316
2,2, 5, 4, 0,18,40.00,50.00,Thursday
8,17.88155167307833
2,2, 5, 4, 0,18,50.00,60.00,Thursday
8,17.61396909836756
2,2, 5, 4, 0,18, 0.00,60.00,Thursday
95,30.843897686747196
135,26.764055940524398
175,26.701012949826347
215,30.9631478376036
255,26.67819480872633
295,30.772618676325
2,2, 5, 4, 0,19, 0.00,10.00,Thursday
8,17.547643317228056
2,2, 5, 4, 0,19,10.00,20.00,Thursday
8,17.41514972730026
2,2, 5, 4, 0,19,20.00,30.00,Thursday
8,17.414452263359743
2,2, 5, 4, 0,19,30.00,40.00,Thursday
8,17.61168482171729
2,2, 5, 4, 0,19,40.00,50.00,Thursday
8,17.47800606934117
2,2, 5, 4, 0,19,50.00,60.00,Thursday
8,17.344123497364867
2,2, 5, 4, 0,19, 0.00,60.00,Thursday
95,30.706901395138489
135,26.26897120895651
175,26.260846161129466
215,30.820622554841035
255,26.13199695032117
295,30.634906212177567
2,2, 5, 4, 0,20, 0.00,10.00,Thursday
8,17.330680463983094
2,2, 5, 4, 0,20,10.00,20.00,Thursday
8,17.3066015135782
2,2, 5, 4, 0,20,20.00,30.00,Thursday
8,17.447124701941094
2,2, 5, 4, 0,20,30.00,40.00,Thursday
8,17.56407845936334
2,2, 5, 4, 0,20,40.00,50.00,Thursday
8,17.507447959826924
2,2, 5, 4, 0,20,50.00,60.00,Thursday
8,17.66050097641831
2,2, 5, 4, 0,20, 0.00,60.00,Thursday
95,30.276604661022679
135,25.489941970945976
175,25.563776680979819
215,30.386179853095287
255,25.31041197838077
295,30.203734635497239
2,2, 5, 4, 0,21, 0.00,10.00,Thursday
8,17.4410719211935
2,2, 5, 4, 0,21,10.00,20.00,Thursday
8,17.368294811205016
2,2, 5, 4, 0,21,20.00,30.00,Thursday
8,17.22263349128954
2,2, 5, 4, 0,21,30.00,40.00,Thursday
8,17.223436638622368
2,2, 5, 4, 0,21,40.00,50.00,Thursday
8,17.15034183460849
2,2, 5, 4, 0,21,50.00,60.00,Thursday
8,17.29035116040437
2,2, 5, 4, 0,21, 0.00,60.00,Thursday
95,29.86461263292594
135,24.844183288435244
175,24.99186782461324
215,29.970539012728925
255,24.66128424672944
295,29.789236727715076
2,2, 5, 4, 0,22, 0.00,10.00,Thursday
8,16.781062885381134
2,2, 5, 4, 0,22,10.00,20.00,Thursday
8,16.99414335031271
2,2, 5, 4, 0,22,20.00,30.00,Thursday
8,16.830673437877765
2,2, 5, 4, 0,22,30.00,40.00,Thursday
8,16.92114220541519
2,2, 5, 4, 0,22,40.00,50.00,Thursday
8,16.496429093634366
2,2, 5, 4, 0,22,50.00,60.00,Thursday
8,16.637030115747828
2,2, 5, 4, 0,22, 0.00,60.00,Thursday
95,29.439963539039757
135,24.36812017261106
175,24.581295681524634
215,29.542903207319485
255,24.212043350313299
295,29.366722901174684
2,2, 5, 4, 0,23, 0.00,10.00,Thursday
8,16.700451292377584
2,2, 5, 4, 0,23,10.00,20.00,Thursday
8,16.759403426097838
2,2, 5, 4, 0,23,20.00,30.00,Thursday
8,17.14125292925861
2,2, 5, 4, 0,23,30.00,40.00,Thursday
8,16.83522149787004
2,2, 5, 4, 0,23,40.00,50.00,Thursday
8,16.486251796648906
2,2, 5, 4, 0,23,50.00,60.00,Thursday
8,16.11001533083662
2,2, 5, 4, 0,23, 0.00,60.00,Thursday
95,29.070902452626617
135,23.933886180954869
175,24.207599177711264
215,29.177057840643078
255,23.804941458925084
295,28.996554758381778
2,2, 5, 4, 0,24, 0.00,10.00,Thursday
8,16.053155835485368
2,2, 5, 4, 0,24,10.00,20.00,Thursday
8,15.98004593077011
2,2, 5, 4, 0,24,20.00,30.00,Thursday
8,15.565020868493216
2,2, 5, 4, 0,24,30.00,40.00,Thursday
8,16.11251092042783
2,2, 5, 4, 0,24,40.00,50.00,Thursday
8,15.667218769440659
2,2, 5, 4, 0,24,50.00,60.00,Thursday
8,15.866711986239397
2,2, 5, 4, 0,24, 0.00,60.00,Thursday
95,28.738675531923279
135,23.594577940858306
175,23.907800703531778
215,28.84548286350025
255,23.49026622416653
295,28.665412570357775
3,2, 5, 4, 0,Thursday
96,35.77294525623581,29.740702083347594,17,20,42.82752014168485, 8,20
136,45.280451615180549,36.72062236332468,16,40,53.64033613568026, 7,40
176,44.65426237329037,36.973905922157957,16,40,52.18869158427422, 7,50
216,35.45852360439121,29.494251374497666,17,20,42.390055373362688, 8,20
256,45.363783521001547,36.69082606375403,16,40,53.74771847735419, 7,40
296,35.916042103573229,29.864436021238384,17,20,42.987306722687758, 8,20
2,3, 5, 5, 0, 1, 0.00,10.00,Friday
8,15.642718013028631
2,3, 5, 5, 0, 1,10.00,20.00,Friday
8,15.393623802559059
2,3, 5, 5, 0, 1,20.00,30.00,Friday
8,15.393623802559059
2,3, 5, 5, 0, 1,30.00,40.00,Friday
8,15.667744693980089
2,3, 5, 5, 0, 1,40.00,50.00,Friday
8,15.173384213633425
2,3, 5, 5, 0, 1,50.00,60.00,Friday
8,15.246245372224334
2,3, 5, 5, 0, 1, 0.00,60.00,Friday
95,28.3584687650017
135,23.288804647716068
175,23.635035305313449
215,28.468261418274169
255,23.2083152957221
295,28.28476055858867
2,3, 5, 5, 0, 2, 0.00,10.00,Friday
8,15.29716115634222
2,3, 5, 5, 0, 2,10.00,20.00,Friday
8,15.194290642877819
2,3, 5, 5, 0, 2,20.00,30.00,Friday
8,15.273236354022539
2,3, 5, 5, 0, 2,30.00,40.00,Friday
8,15.03008483623594
2,3, 5, 5, 0, 2,40.00,50.00,Friday
8,15.076385410391456
2,3, 5, 5, 0, 2,50.00,60.00,Friday
8,14.666114655258705
2,3, 5, 5, 0, 2, 0.00,60.00,Friday
95,27.87104309106212
135,22.983677775057413
175,23.35417297875507
215,27.980723924441738
255,22.923098151622644
295,27.79795787951265
2,3, 5, 5, 0, 3, 0.00,10.00,Friday
8,14.84214024838254
2,3, 5, 5, 0, 3,10.00,20.00,Friday
8,14.665945017831023
2,3, 5, 5, 0, 3,20.00,30.00,Friday
8,14.858213728505963
2,3, 5, 5, 0, 3,30.00,40.00,Friday
8,14.54269703030472
2,3, 5, 5, 0, 3,40.00,50.00,Friday
8,14.633569023291674
2,3, 5, 5, 0, 3,50.00,60.00,Friday
8,14.562130567139866
2,3, 5, 5, 0, 3, 0.00,60.00,Friday
95,27.236524397768503
135,22.604120008085656
175,22.99281402432892
215,27.342646796197444
255,22.555143482926839
295,27.166075995518047
2,3, 5, 5, 0, 4, 0.00,10.00,Friday
8,14.39566025317448
2,3, 5, 5, 0, 4,10.00,20.00,Friday
8,14.464128670844503
2,3, 5, 5, 0, 4,20.00,30.00,Friday
8,14.642691977420645
2,3, 5, 5, 0, 4,30.00,40.00,Friday
8,14.486747480138199
2,3, 5, 5, 0, 4,40.00,50.00,Friday
8,14.4823579044117
2,3, 5, 5, 0, 4,50.00,60.00,Friday
8,14.475270791468392
2,3, 5, 5, 0, 4, 0.00,60.00,Friday
95,26.753075506349238
135,22.27018979519266
175,22.672688060873793
215,26.86109772706321
255,22.231501888652195
295,26.685720301938287
2,3, 5, 5, 0, 5, 0.00,10.00,Friday
8,14.449165629404903
2,3, 5, 5, 0, 5,10.00,20.00,Friday
8,14.949940060751125
2,3, 5, 5, 0, 5,20.00,30.00,Friday
8,14.641937727270527
2,3, 5, 5, 0, 5,30.00,40.00,Friday
8,14.562101200406476
2,3, 5, 5, 0, 5,40.00,50.00,Friday