Program Version,EnergyPlus, Version 9.2.0-921312fa1d, YMD=2021.11.28 11:09
1,5,Environment Title[],Latitude[deg],Longitude[deg],Time Zone[],Elevation[m]
2,8,Day of Simulation[],Month[],Day of Month[],DST Indicator[1=yes 0=no],Hour[],StartMinute[],EndMinute[],DayType
3,5,Cumulative Day of Simulation[],Month[],Day of Month[],DST Indicator[1=yes 0=no],DayType  ! When Daily Report Variables Requested
4,2,Cumulative Days of Simulation[],Month[]  ! When Monthly Report Variables Requested
5,1,Cumulative Days of Simulation[] ! When Run Period Report Variables Requested
6,1,Calendar Year of Simulation[] ! When Annual Report Variables Requested
7,9,Environment,Site Outdoor Air Drybulb Temperature [C] !Monthly [Value,Min,Day,Hour,Minute,Max,Day,Hour,Minute]
8,1,Environment,Site Outdoor Air Wetbulb Temperature [C] !TimeStep
95,1,THERMAL ZONE: CUBO3X3,Zone Air Temperature [C] !Hourly
96,7,THERMAL ZONE: CUBO3X3,Zone Air Relative Humidity [%] !Daily [Value,Min,Hour,Minute,Max,Hour,Minute]
End of Data Dictionary
1,RUN PERIOD 1,  18.85, -99.14,  -6.00,1280.00
2,1, 1, 1, 0, 1, 0.00,10.00,Sunday
8,11.359110332278754
2,1, 1, 1, 0, 1,10.00,20.00,Sunday
8,11.40801937461081
2,1, 1, 1, 0, 1,20.00,30.00,Sunday
8,11.279386537204605
2,1, 1, 1, 0, 1,30.00,40.00,Sunday
8,11.388565889148352
2,1, 1, 1, 0, 1,40.00,50.00,Sunday
8,11.22618540003249
2,1, 1, 1, 0, 1,50.00,60.00,Sunday
8,11.063792250641566
2,1, 1, 1, 0, 1, 0.00,60.00,Sunday
95,18.069623160137849
2,1, 1, 1, 0, 2, 0.00,10.00,Sunday
8,11.039790544495013
2,1, 1, 1, 0, 2,10.00,20.00,Sunday
8,11.284803750214568
2,1, 1, 1, 0, 2,20.00,30.00,Sunday
8,11.177506518970313
2,1, 1, 1, 0, 2,30.00,40.00,Sunday
8,11.118675027699187
2,1, 1, 1, 0, 2,40.00,50.00,Sunday
8,11.039790544495013
2,1, 1, 1, 0, 2,50.00,60.00,Sunday
8,11.039790544495013
2,1, 1, 1, 0, 2, 0.00,60.00,Sunday
95,18.110684532741059
2,1, 1, 1, 0, 3, 0.00,10.00,Sunday
8,10.931085312486895
2,1, 1, 1, 0, 3,10.00,20.00,Sunday
8,10.835011792048839
2,1, 1, 1, 0, 3,20.00,30.00,Sunday
8,10.848934084250372
2,1, 1, 1, 0, 3,30.00,40.00,Sunday
8,10.54625064841914
2,1, 1, 1, 0, 3,40.00,50.00,Sunday
8,10.333893220234569
2,1, 1, 1, 0, 3,50.00,60.00,Sunday
8,10.08920604656715
2,1, 1, 1, 0, 3, 0.00,60.00,Sunday
95,18.13416055861515
2,1, 1, 1, 0, 4, 0.00,10.00,Sunday
8,10.102994367114123
2,1, 1, 1, 0, 4,10.00,20.00,Sunday
8,9.835121585093843
2,1, 1, 1, 0, 4,20.00,30.00,Sunday
8,9.429966113280605
2,1, 1, 1, 0, 4,30.00,40.00,Sunday
8,9.659269181347267
2,1, 1, 1, 0, 4,40.00,50.00,Sunday
8,9.520452713928508
2,1, 1, 1, 0, 4,50.00,60.00,Sunday
8,9.631758657989316
2,1, 1, 1, 0, 4, 0.00,60.00,Sunday
95,18.14133982700061
2,1, 1, 1, 0, 5, 0.00,10.00,Sunday
8,9.410948507327836
2,1, 1, 1, 0, 5,10.00,20.00,Sunday
8,9.489774147538414
2,1, 1, 1, 0, 5,20.00,30.00,Sunday
8,9.33212303556473
2,1, 1, 1, 0, 5,30.00,40.00,Sunday
8,9.177374879626316
2,1, 1, 1, 0, 5,40.00,50.00,Sunday
8,9.177374879626316
2,1, 1, 1, 0, 5,50.00,60.00,Sunday
8,9.586574649508672
2,1, 1, 1, 0, 5, 0.00,60.00,Sunday
95,18.132471417426108
2,1, 1, 1, 0, 6, 0.00,10.00,Sunday
8,9.309927701398685
2,1, 1, 1, 0, 6,10.00,20.00,Sunday
8,9.22776738082998
2,1, 1, 1, 0, 6,20.00,30.00,Sunday
8,9.195332262098383
2,1, 1, 1, 0, 6,30.00,40.00,Sunday
8,9.308580295007716
2,1, 1, 1, 0, 6,40.00,50.00,Sunday
8,9.248792247753637
2,1, 1, 1, 0, 6,50.00,60.00,Sunday
8,9.205350918291139
2,1, 1, 1, 0, 6, 0.00,60.00,Sunday
95,18.10706025707054
2,1, 1, 1, 0, 7, 0.00,10.00,Sunday
8,8.958252727688551
2,1, 1, 1, 0, 7,10.00,20.00,Sunday
8,9.28757227865462
2,1, 1, 1, 0, 7,20.00,30.00,Sunday
8,9.083433277283131
2,1, 1, 1, 0, 7,30.00,40.00,Sunday
8,9.083433277283131
2,1, 1, 1, 0, 7,40.00,50.00,Sunday
8,9.041393183081223
2,1, 1, 1, 0, 7,50.00,60.00,Sunday
8,9.01668855320783
2,1, 1, 1, 0, 7, 0.00,60.00,Sunday
95,18.065621909830698
2,1, 1, 1, 0, 8, 0.00,10.00,Sunday
8,9.07867158337668
2,1, 1, 1, 0, 8,10.00,20.00,Sunday
8,8.98530294473885
2,1, 1, 1, 0, 8,20.00,30.00,Sunday
8,8.74277119372937
2,1, 1, 1, 0, 8,30.00,40.00,Sunday
8,8.87011932991529
2,1, 1, 1, 0, 8,40.00,50.00,Sunday
8,8.98530294473885
2,1, 1, 1, 0, 8,50.00,60.00,Sunday
8,9.257707700025327
2,1, 1, 1, 0, 8, 0.00,60.00,Sunday
95,18.00881462375538
2,1, 1, 1, 0, 9, 0.00,10.00,Sunday
8,9.468587430047022
2,1, 1, 1, 0, 9,10.00,20.00,Sunday
8,10.134496077330058
2,1, 1, 1, 0, 9,20.00,30.00,Sunday
8,10.460203758291862
2,1, 1, 1, 0, 9,30.00,40.00,Sunday
8,9.710346411229402
2,1, 1, 1, 0, 9,40.00,50.00,Sunday
8,10.087951034124922
2,1, 1, 1, 0, 9,50.00,60.00,Sunday
8,10.22849740115049
2,1, 1, 1, 0, 9, 0.00,60.00,Sunday
95,17.938765211579697
2,1, 1, 1, 0,10, 0.00,10.00,Sunday
8,10.808627599053163
2,1, 1, 1, 0,10,10.00,20.00,Sunday
8,11.120626057058328
2,1, 1, 1, 0,10,20.00,30.00,Sunday
8,11.532464145684907
2,1, 1, 1, 0,10,30.00,40.00,Sunday
8,11.84572516489377
2,1, 1, 1, 0,10,40.00,50.00,Sunday
8,11.851862011801002
2,1, 1, 1, 0,10,50.00,60.00,Sunday
8,11.539510524227064
2,1, 1, 1, 0,10, 0.00,60.00,Sunday
95,17.858288616749158
2,1, 1, 1, 0,11, 0.00,10.00,Sunday
8,11.697662385933925
2,1, 1, 1, 0,11,10.00,20.00,Sunday
8,12.050202380167058
2,1, 1, 1, 0,11,20.00,30.00,Sunday
8,12.292317185066171
2,1, 1, 1, 0,11,30.00,40.00,Sunday
8,12.611057921412556
2,1, 1, 1, 0,11,40.00,50.00,Sunday
8,12.824063315381388
2,1, 1, 1, 0,11,50.00,60.00,Sunday
8,12.917144161650502
2,1, 1, 1, 0,11, 0.00,60.00,Sunday
95,17.769240240111416
2,1, 1, 1, 0,12, 0.00,10.00,Sunday
8,12.679907503644062
2,1, 1, 1, 0,12,10.00,20.00,Sunday
8,12.689914697887933
2,1, 1, 1, 0,12,20.00,30.00,Sunday
8,11.975165774740239
2,1, 1, 1, 0,12,30.00,40.00,Sunday
8,11.399240444953293
2,1, 1, 1, 0,12,40.00,50.00,Sunday
8,11.338570975194749
2,1, 1, 1, 0,12,50.00,60.00,Sunday
8,11.204219552508186
2,1, 1, 1, 0,12, 0.00,60.00,Sunday
95,17.67650452204661
2,1, 1, 1, 0,13, 0.00,10.00,Sunday
8,11.400636370828817
2,1, 1, 1, 0,13,10.00,20.00,Sunday
8,11.740343253702248
2,1, 1, 1, 0,13,20.00,30.00,Sunday
8,11.923855258965851
2,1, 1, 1, 0,13,30.00,40.00,Sunday
8,11.596936569394464
2,1, 1, 1, 0,13,40.00,50.00,Sunday
8,11.472919328038169
2,1, 1, 1, 0,13,50.00,60.00,Sunday
8,11.498893527584253
2,1, 1, 1, 0,13, 0.00,60.00,Sunday
95,17.58979379588285
2,1, 1, 1, 0,14, 0.00,10.00,Sunday
8,11.315987538927399
2,1, 1, 1, 0,14,10.00,20.00,Sunday
8,11.173022543086395
2,1, 1, 1, 0,14,20.00,30.00,Sunday
8,11.502360236111806
2,1, 1, 1, 0,14,30.00,40.00,Sunday
8,11.233396456238982
2,1, 1, 1, 0,14,40.00,50.00,Sunday
8,11.645502345733784
2,1, 1, 1, 0,14,50.00,60.00,Sunday
8,11.534970899914493
2,1, 1, 1, 0,14, 0.00,60.00,Sunday
95,17.51749484481345
2,1, 1, 1, 0,15, 0.00,10.00,Sunday
8,11.656144086597888
2,1, 1, 1, 0,15,10.00,20.00,Sunday
8,11.530600731930173
2,1, 1, 1, 0,15,20.00,30.00,Sunday
8,11.530600731930173
2,1, 1, 1, 0,15,30.00,40.00,Sunday
8,11.705479262869942
2,1, 1, 1, 0,15,40.00,50.00,Sunday
8,11.938379692972078
2,1, 1, 1, 0,15,50.00,60.00,Sunday
8,11.180273366328182
2,1, 1, 1, 0,15, 0.00,60.00,Sunday
95,17.466040346071833
2,1, 1, 1, 0,16, 0.00,10.00,Sunday
8,11.656144086597888
2,1, 1, 1, 0,16,10.00,20.00,Sunday
8,11.656144086597888
2,1, 1, 1, 0,16,20.00,30.00,Sunday
8,11.774659198739882
2,1, 1, 1, 0,16,30.00,40.00,Sunday
8,11.705479262869942
2,1, 1, 1, 0,16,40.00,50.00,Sunday
8,11.893091144170498
2,1, 1, 1, 0,16,50.00,60.00,Sunday
8,12.07060798670223
2,1, 1, 1, 0,16, 0.00,60.00,Sunday
95,17.44188196512444
2,1, 1, 1, 0,17, 0.00,10.00,Sunday
8,12.403265397580015
2,1, 1, 1, 0,17,10.00,20.00,Sunday
8,11.880181610299534
2,1, 1, 1, 0,17,20.00,30.00,Sunday
8,11.880181610299534
2,1, 1, 1, 0,17,30.00,40.00,Sunday
8,12.112850881398858
2,1, 1, 1, 0,17,40.00,50.00,Sunday
8,11.705479262869942
2,1, 1, 1, 0,17,50.00,60.00,Sunday
8,12.112850881398858
2,1, 1, 1, 0,17, 0.00,60.00,Sunday
95,17.44596821503969
2,1, 1, 1, 0,18, 0.00,10.00,Sunday
8,12.112850881398858
2,1, 1, 1, 0,18,10.00,20.00,Sunday
8,11.588912899725312
2,1, 1, 1, 0,18,20.00,30.00,Sunday
8,11.588912899725312
2,1, 1, 1, 0,18,30.00,40.00,Sunday
8,12.617056625209381
2,1, 1, 1, 0,18,40.00,50.00,Sunday
8,11.359536210579746
2,1, 1, 1, 0,18,50.00,60.00,Sunday
8,11.233396456238982
2,1, 1, 1, 0,18, 0.00,60.00,Sunday
95,17.478057710688458
2,1, 1, 1, 0,19, 0.00,10.00,Sunday
8,11.233396456238982
2,1, 1, 1, 0,19,10.00,20.00,Sunday
8,11.253833065942523
2,1, 1, 1, 0,19,20.00,30.00,Sunday
8,11.005029483495046
2,1, 1, 1, 0,19,30.00,40.00,Sunday
8,10.779212122079786
2,1, 1, 1, 0,19,40.00,50.00,Sunday
8,10.936129434258014
2,1, 1, 1, 0,19,50.00,60.00,Sunday
8,10.517828275472342
2,1, 1, 1, 0,19, 0.00,60.00,Sunday
95,17.537126670092957
2,1, 1, 1, 0,20, 0.00,10.00,Sunday
8,10.508014314572649
2,1, 1, 1, 0,20,10.00,20.00,Sunday
8,10.298052519895963
2,1, 1, 1, 0,20,20.00,30.00,Sunday
8,10.189145818887184
2,1, 1, 1, 0,20,30.00,40.00,Sunday
8,10.287999673003766
2,1, 1, 1, 0,20,40.00,50.00,Sunday
8,10.216678579548722
2,1, 1, 1, 0,20,50.00,60.00,Sunday
8,10.073988820163894
2,1, 1, 1, 0,20, 0.00,60.00,Sunday
95,17.619141422335699
2,1, 1, 1, 0,21, 0.00,10.00,Sunday
8,10.047750914652808
2,1, 1, 1, 0,21,10.00,20.00,Sunday
8,10.047750914652808
2,1, 1, 1, 0,21,20.00,30.00,Sunday
8,9.788487266509478
2,1, 1, 1, 0,21,30.00,40.00,Sunday
8,9.664631268086817
2,1, 1, 1, 0,21,40.00,50.00,Sunday
8,9.859884227294476
2,1, 1, 1, 0,21,50.00,60.00,Sunday
8,9.877801295059813
2,1, 1, 1, 0,21, 0.00,60.00,Sunday
95,17.718549792906975
2,1, 1, 1, 0,22, 0.00,10.00,Sunday
8,9.737606099575748
2,1, 1, 1, 0,22,10.00,20.00,Sunday
8,9.737606099575748
2,1, 1, 1, 0,22,20.00,30.00,Sunday
8,9.667495898439338
2,1, 1, 1, 0,22,30.00,40.00,Sunday
8,9.457063712141317
2,1, 1, 1, 0,22,40.00,50.00,Sunday
8,9.567895026146124
2,1, 1, 1, 0,22,50.00,60.00,Sunday
8,9.603574595036648
2,1, 1, 1, 0,22, 0.00,60.00,Sunday
95,17.824351400888675
2,1, 1, 1, 0,23, 0.00,10.00,Sunday
8,9.6373624946951
2,1, 1, 1, 0,23,10.00,20.00,Sunday
8,9.741106720671969
2,1, 1, 1, 0,23,20.00,30.00,Sunday
8,9.567895026146124
2,1, 1, 1, 0,23,30.00,40.00,Sunday
8,9.17628423253305
2,1, 1, 1, 0,23,40.00,50.00,Sunday
8,9.567895026146124
2,1, 1, 1, 0,23,50.00,60.00,Sunday
8,9.498416406741076
2,1, 1, 1, 0,23, 0.00,60.00,Sunday
95,17.92218439813053
2,1, 1, 1, 0,24, 0.00,10.00,Sunday
8,9.498416406741076
2,1, 1, 1, 0,24,10.00,20.00,Sunday
8,9.498416406741076
2,1, 1, 1, 0,24,20.00,30.00,Sunday
8,9.397158046864686
2,1, 1, 1, 0,24,30.00,40.00,Sunday
8,9.397158046864686
2,1, 1, 1, 0,24,40.00,50.00,Sunday
8,9.35984763910202
2,1, 1, 1, 0,24,50.00,60.00,Sunday
8,9.35984763910202
2,1, 1, 1, 0,24, 0.00,60.00,Sunday
95,18.00327445372749
3,1, 1, 1, 0,Sunday
96,46.69013718848701,45.73494419725747, 4,30,47.80618401308118,16,60
2,2, 1, 2, 0, 1, 0.00,10.00,Monday
8,9.1453558221218
2,2, 1, 2, 0, 1,10.00,20.00,Monday
8,8.807323536425234
2,2, 1, 2, 0, 1,20.00,30.00,Monday
8,8.930727424177169
2,2, 1, 2, 0, 1,30.00,40.00,Monday
8,8.582358782761644
2,2, 1, 2, 0, 1,40.00,50.00,Monday
8,8.501067352204818
2,2, 1, 2, 0, 1,50.00,60.00,Monday
8,8.644349684515222
2,2, 1, 2, 0, 1, 0.00,60.00,Monday
95,18.064518387039603
2,2, 1, 2, 0, 2, 0.00,10.00,Monday
8,8.588791794655834
2,2, 1, 2, 0, 2,10.00,20.00,Monday
8,8.296020202202559
2,2, 1, 2, 0, 2,20.00,30.00,Monday
8,8.297216581044902
2,2, 1, 2, 0, 2,30.00,40.00,Monday
8,8.298141094268763
2,2, 1, 2, 0, 2,40.00,50.00,Monday
8,8.078371492407046
2,2, 1, 2, 0, 2,50.00,60.00,Monday
8,8.224280990650714
2,2, 1, 2, 0, 2, 0.00,60.00,Monday
95,18.105759480491789
2,2, 1, 2, 0, 3, 0.00,10.00,Monday
8,7.842600285025473
2,2, 1, 2, 0, 3,10.00,20.00,Monday
8,7.856752980776917
2,2, 1, 2, 0, 3,20.00,30.00,Monday
8,7.776941207257197
2,2, 1, 2, 0, 3,30.00,40.00,Monday
8,7.640245228123476
2,2, 1, 2, 0, 3,40.00,50.00,Monday
8,7.641633309720758
2,2, 1, 2, 0, 3,50.00,60.00,Monday
8,7.639958425491855
2,2, 1, 2, 0, 3, 0.00,60.00,Monday
95,18.129320657809087
2,2, 1, 2, 0, 4, 0.00,10.00,Monday
8,7.711822125905993
2,2, 1, 2, 0, 4,10.00,20.00,Monday
8,7.697805225467361
2,2, 1, 2, 0, 4,20.00,30.00,Monday
8,7.563912465269591
2,2, 1, 2, 0, 4,30.00,40.00,Monday
8,7.492632686737027
2,2, 1, 2, 0, 4,40.00,50.00,Monday
8,7.492632686737027
2,2, 1, 2, 0, 4,50.00,60.00,Monday
8,7.415252517412944
2,2, 1, 2, 0, 4, 0.00,60.00,Monday
95,18.13620802004819
2,2, 1, 2, 0, 5, 0.00,10.00,Monday
8,7.2738439202896949
2,2, 1, 2, 0, 5,10.00,20.00,Monday
8,7.350020193393933
2,2, 1, 2, 0, 5,20.00,30.00,Monday
8,7.4213327103212409
2,2, 1, 2, 0, 5,30.00,40.00,Monday
8,7.352344283769338
2,2, 1, 2, 0, 5,40.00,50.00,Monday
8,7.280390974983196
2,2, 1, 2, 0, 5,50.00,60.00,Monday
8,7.208417434187288
2,2, 1, 2, 0, 5, 0.00,60.00,Monday
95,18.125769469899045
2,2, 1, 2, 0, 6, 0.00,10.00,Monday
8,7.136424870668118
2,2, 1, 2, 0, 6,10.00,20.00,Monday
8,7.1338610815931668
2,2, 1, 2, 0, 6,20.00,30.00,Monday
8,7.055089755230422
2,2, 1, 2, 0, 6,30.00,40.00,Monday
8,7.055089755230422
2,2, 1, 2, 0, 6,40.00,50.00,Monday
8,7.206457592726676
2,2, 1, 2, 0, 6,50.00,60.00,Monday
8,7.347815703551971
2,2, 1, 2, 0, 6, 0.00,60.00,Monday
95,18.097548358539528
2,2, 1, 2, 0, 7, 0.00,10.00,Monday
8,7.055089755230422
2,2, 1, 2, 0, 7,10.00,20.00,Monday
8,7.193576123438314
2,2, 1, 2, 0, 7,20.00,30.00,Monday
8,7.201486654818206
2,2, 1, 2, 0, 7,30.00,40.00,Monday
8,7.206457592726676
2,2, 1, 2, 0, 7,40.00,50.00,Monday
8,7.351590186631411
2,2, 1, 2, 0, 7,50.00,60.00,Monday
8,7.420946736469923
2,2, 1, 2, 0, 7, 0.00,60.00,Monday
95,18.052233420192
2,2, 1, 2, 0, 8, 0.00,10.00,Monday
8,7.201486654818206
2,2, 1, 2, 0, 8,10.00,20.00,Monday
8,7.182767503818965
2,2, 1, 2, 0, 8,20.00,30.00,Monday
8,7.108415914302416
2,2, 1, 2, 0, 8,30.00,40.00,Monday
8,7.094195807280836
2,2, 1, 2, 0, 8,40.00,50.00,Monday
8,7.244004947359198
2,2, 1, 2, 0, 8,50.00,60.00,Monday
8,7.562179996630284
2,2, 1, 2, 0, 8, 0.00,60.00,Monday
95,17.99203601817116
2,2, 1, 2, 0, 9, 0.00,10.00,Monday
8,7.859379874821971
2,2, 1, 2, 0, 9,10.00,20.00,Monday
8,8.070831930011633
2,2, 1, 2, 0, 9,20.00,30.00,Monday
8,8.005394357245598
2,2, 1, 2, 0, 9,30.00,40.00,Monday
8,8.592095216652139
2,2, 1, 2, 0, 9,40.00,50.00,Monday
8,8.726842670733597
2,2, 1, 2, 0, 9,50.00,60.00,Monday
8,9.216865942649111
2,2, 1, 2, 0, 9, 0.00,60.00,Monday
95,17.919289332330327
2,2, 1, 2, 0,10, 0.00,10.00,Monday
8,9.198285494398613
2,2, 1, 2, 0,10,10.00,20.00,Monday
8,9.106047954965561
2,2, 1, 2, 0,10,20.00,30.00,Monday
8,9.527224340062294
2,2, 1, 2, 0,10,30.00,40.00,Monday
8,9.737606099575748
2,2, 1, 2, 0,10,40.00,50.00,Monday
8,9.552462814869826
2,2, 1, 2, 0,10,50.00,60.00,Monday
8,9.520496763117678
2,2, 1, 2, 0,10, 0.00,60.00,Monday
95,17.83701357809502
2,2, 1, 2, 0,11, 0.00,10.00,Monday
8,9.462181799059561
2,2, 1, 2, 0,11,10.00,20.00,Monday
8,9.808715125123044
2,2, 1, 2, 0,11,20.00,30.00,Monday
8,10.478952324436925
2,2, 1, 2, 0,11,30.00,40.00,Monday
8,10.35161262607208
2,2, 1, 2, 0,11,40.00,50.00,Monday
8,10.26124210822687
2,2, 1, 2, 0,11,50.00,60.00,Monday
8,10.33382554175226
2,2, 1, 2, 0,11, 0.00,60.00,Monday
95,17.74477291576333
2,2, 1, 2, 0,12, 0.00,10.00,Monday
8,10.40639177883014
2,2, 1, 2, 0,12,10.00,20.00,Monday
8,11.103551064468645
2,2, 1, 2, 0,12,20.00,30.00,Monday
8,11.143108969040285
2,2, 1, 2, 0,12,30.00,40.00,Monday
8,11.356681813130102
2,2, 1, 2, 0,12,40.00,50.00,Monday
8,11.31875538405852
2,2, 1, 2, 0,12,50.00,60.00,Monday
8,11.556388318030692
2,2, 1, 2, 0,12, 0.00,60.00,Monday
95,17.647875661891903
2,2, 1, 2, 0,13, 0.00,10.00,Monday
8,11.416730067352676
2,2, 1, 2, 0,13,10.00,20.00,Monday
8,11.45569986735701
2,2, 1, 2, 0,13,20.00,30.00,Monday
8,11.60236249991021
2,2, 1, 2, 0,13,30.00,40.00,Monday
8,11.196016626713992
2,2, 1, 2, 0,13,40.00,50.00,Monday
8,11.406073962251942
2,2, 1, 2, 0,13,50.00,60.00,Monday
8,11.604707297015003
2,2, 1, 2, 0,13, 0.00,60.00,Monday
95,17.55404597310401
2,2, 1, 2, 0,14, 0.00,10.00,Monday
8,11.538506966909284
2,2, 1, 2, 0,14,10.00,20.00,Monday
8,11.259740303987757
2,2, 1, 2, 0,14,20.00,30.00,Monday
8,11.562695547741804
2,2, 1, 2, 0,14,30.00,40.00,Monday
8,11.582992063479985
2,2, 1, 2, 0,14,40.00,50.00,Monday
8,12.101940377999695
2,2, 1, 2, 0,14,50.00,60.00,Monday
8,11.812657607963346
2,2, 1, 2, 0,14, 0.00,60.00,Monday
95,17.47009293713162
2,2, 1, 2, 0,15, 0.00,10.00,Monday
8,11.535883961203519
2,2, 1, 2, 0,15,10.00,20.00,Monday
8,11.998652031922005
2,2, 1, 2, 0,15,20.00,30.00,Monday
8,11.41439962751309
2,2, 1, 2, 0,15,30.00,40.00,Monday
8,11.82891305033714
2,2, 1, 2, 0,15,40.00,50.00,Monday
8,11.775901827840338
2,2, 1, 2, 0,15,50.00,60.00,Monday
8,11.836091030288826
2,2, 1, 2, 0,15, 0.00,60.00,Monday
95,17.401778339330279
2,2, 1, 2, 0,16, 0.00,10.00,Monday
8,11.893091144170498
2,2, 1, 2, 0,16,10.00,20.00,Monday
8,11.89625941503724
2,2, 1, 2, 0,16,20.00,30.00,Monday
8,11.715699561443195
2,2, 1, 2, 0,16,30.00,40.00,Monday
8,11.95227807636934
2,2, 1, 2, 0,16,40.00,50.00,Monday
8,11.833882045323949
2,2, 1, 2, 0,16,50.00,60.00,Monday
8,11.893091144170498
2,2, 1, 2, 0,16, 0.00,60.00,Monday
95,17.353940757306565
2,2, 1, 2, 0,17, 0.00,10.00,Monday
8,12.011452298954105
2,2, 1, 2, 0,17,10.00,20.00,Monday
8,12.07060798670223
2,2, 1, 2, 0,17,20.00,30.00,Monday
8,12.07060798670223
2,2, 1, 2, 0,17,30.00,40.00,Monday
8,11.833882045323949
2,2, 1, 2, 0,17,40.00,50.00,Monday
8,12.016557366414542
2,2, 1, 2, 0,17,50.00,60.00,Monday
8,12.54322654639956
2,2, 1, 2, 0,17, 0.00,60.00,Monday
95,17.331017049822255
2,2, 1, 2, 0,18, 0.00,10.00,Monday
8,12.484209728323015
2,2, 1, 2, 0,18,10.00,20.00,Monday
8,12.437066531859765
2,2, 1, 2, 0,18,20.00,30.00,Monday
8,12.188866217037069
2,2, 1, 2, 0,18,30.00,40.00,Monday
8,12.377040590070493
2,2, 1, 2, 0,18,40.00,50.00,Monday
8,12.555865834571034
2,2, 1, 2, 0,18,50.00,60.00,Monday
8,12.437066531859765
2,2, 1, 2, 0,18, 0.00,60.00,Monday
95,17.337835977162866
2,2, 1, 2, 0,19, 0.00,10.00,Monday
8,12.256330127365724
2,2, 1, 2, 0,19,10.00,20.00,Monday
8,12.432137130947883
2,2, 1, 2, 0,19,20.00,30.00,Monday
8,12.54144947470461
2,2, 1, 2, 0,19,30.00,40.00,Monday
8,12.390962912677344
2,2, 1, 2, 0,19,40.00,50.00,Monday
8,12.421961192616886
2,2, 1, 2, 0,19,50.00,60.00,Monday
8,12.099514614388971
2,2, 1, 2, 0,19, 0.00,60.00,Monday
95,17.375891586236944
2,2, 1, 2, 0,20, 0.00,10.00,Monday
8,11.90591457557855
2,2, 1, 2, 0,20,10.00,20.00,Monday
8,11.737065791878834
2,2, 1, 2, 0,20,20.00,30.00,Monday
8,11.807270632502873
2,2, 1, 2, 0,20,30.00,40.00,Monday
8,11.399240444953293
2,2, 1, 2, 0,20,40.00,50.00,Monday
8,11.277036550660073
2,2, 1, 2, 0,20,50.00,60.00,Monday
8,10.997533435342872
2,2, 1, 2, 0,20, 0.00,60.00,Monday
95,17.44322994309928
2,2, 1, 2, 0,21, 0.00,10.00,Monday
8,10.92763901506048
2,2, 1, 2, 0,21,10.00,20.00,Monday
8,10.9660248229808
2,2, 1, 2, 0,21,20.00,30.00,Monday
8,10.895455674421639
2,2, 1, 2, 0,21,30.00,40.00,Monday
8,10.85822619644714
2,2, 1, 2, 0,21,40.00,50.00,Monday
8,10.929465381458428
2,2, 1, 2, 0,21,50.00,60.00,Monday
8,10.68367075251187
2,2, 1, 2, 0,21, 0.00,60.00,Monday
95,17.533538406740335
2,2, 1, 2, 0,22, 0.00,10.00,Monday
8,10.644466707387336
2,2, 1, 2, 0,22,10.00,20.00,Monday
8,10.672283119714088
2,2, 1, 2, 0,22,20.00,30.00,Monday
8,10.501912204183333
2,2, 1, 2, 0,22,30.00,40.00,Monday
8,10.573197615793485
2,2, 1, 2, 0,22,40.00,50.00,Monday
8,10.528457548152398
2,2, 1, 2, 0,22,50.00,60.00,Monday
8,10.40639177883014
2,2, 1, 2, 0,22, 0.00,60.00,Monday
95,17.638274126500766
2,2, 1, 2, 0,23, 0.00,10.00,Monday
8,10.33382554175226
2,2, 1, 2, 0,23,10.00,20.00,Monday
8,10.33382554175226
2,2, 1, 2, 0,23,20.00,30.00,Monday
8,10.33382554175226
2,2, 1, 2, 0,23,30.00,40.00,Monday
8,10.188657942694594
2,2, 1, 2, 0,23,40.00,50.00,Monday
8,10.312644514366586
2,2, 1, 2, 0,23,50.00,60.00,Monday
8,10.501912204183333
2,2, 1, 2, 0,23, 0.00,60.00,Monday
95,17.745633419208017
2,2, 1, 2, 0,24, 0.00,10.00,Monday
8,10.312644514366586
2,2, 1, 2, 0,24,10.00,20.00,Monday
8,10.188657942694594
2,2, 1, 2, 0,24,20.00,30.00,Monday
8,10.40639177883014
2,2, 1, 2, 0,24,30.00,40.00,Monday
8,10.26124210822687
2,2, 1, 2, 0,24,40.00,50.00,Monday
8,10.26124210822687
2,2, 1, 2, 0,24,50.00,60.00,Monday
8,10.11605774827347
2,2, 1, 2, 0,24, 0.00,60.00,Monday
95,17.843934995180203
3,2, 1, 2, 0,Monday
96,46.90062787878912,45.74941896485937, 4,30,48.141037488984739,17,50
2,3, 1, 3, 0, 1, 0.00,10.00,Tuesday
8,12.969518676393454
2,3, 1, 3, 0, 1,10.00,20.00,Tuesday
8,12.869390736517607
2,3, 1, 3, 0, 1,20.00,30.00,Tuesday
8,12.689914697887933
2,3, 1, 3, 0, 1,30.00,40.00,Tuesday
8,12.723822747964487
2,3, 1, 3, 0, 1,40.00,50.00,Tuesday
8,12.61691807185105
2,3, 1, 3, 0, 1,50.00,60.00,Tuesday
8,12.650215173959574
2,3, 1, 3, 0, 1, 0.00,60.00,Tuesday
95,17.926638562032204
2,3, 1, 3, 0, 2, 0.00,10.00,Tuesday
8,12.543925119936726
2,3, 1, 3, 0, 2,10.00,20.00,Tuesday
8,12.429372298487989
2,3, 1, 3, 0, 2,20.00,30.00,Tuesday
8,12.383031313026886
2,3, 1, 3, 0, 2,30.00,40.00,Tuesday
8,12.429372298487989
2,3, 1, 3, 0, 2,40.00,50.00,Tuesday
8,12.502992041636272
2,3, 1, 3, 0, 2,50.00,60.00,Tuesday
8,12.134870975556563
2,3, 1, 3, 0, 2, 0.00,60.00,Tuesday
95,17.991113636763534
2,3, 1, 3, 0, 3, 0.00,10.00,Tuesday
8,12.160349157922602
2,3, 1, 3, 0, 3,10.00,20.00,Tuesday
8,12.208497871887
2,3, 1, 3, 0, 3,20.00,30.00,Tuesday
8,12.160349157922602
2,3, 1, 3, 0, 3,30.00,40.00,Tuesday
8,12.134870975556563
2,3, 1, 3, 0, 3,40.00,50.00,Tuesday
8,12.011866003858476
2,3, 1, 3, 0, 3,50.00,60.00,Tuesday
8,11.98840798999635
2,3, 1, 3, 0, 3, 0.00,60.00,Tuesday
95,18.04003269699212
2,3, 1, 3, 0, 4, 0.00,10.00,Tuesday
8,11.91243114599601
2,3, 1, 3, 0, 4,10.00,20.00,Tuesday
8,11.98840798999635
2,3, 1, 3, 0, 4,20.00,30.00,Tuesday
8,11.98840798999635
2,3, 1, 3, 0, 4,30.00,40.00,Tuesday
8,11.974787247027673
2,3, 1, 3, 0, 4,40.00,50.00,Tuesday
8,11.91243114599601
2,3, 1, 3, 0, 4,50.00,60.00,Tuesday
8,11.928951064425457
2,3, 1, 3, 0, 4, 0.00,60.00,Tuesday
95,18.079610499536576
2,3, 1, 3, 0, 5, 0.00,10.00,Tuesday
8,11.922263088248013
2,3, 1, 3, 0, 5,10.00,20.00,Tuesday
8,11.928951064425457
2,3, 1, 3, 0, 5,20.00,30.00,Tuesday
8,11.851862011801002
2,3, 1, 3, 0, 5,30.00,40.00,Tuesday
8,12.010179329893088
2,3, 1, 3, 0, 5,40.00,50.00,Tuesday
8,11.933104025659136
2,3, 1, 3, 0, 5,50.00,60.00,Tuesday
8,11.851992622545622
2,3, 1, 3, 0, 5, 0.00,60.00,Tuesday
95,18.116060496310355
2,3, 1, 3, 0, 6, 0.00,10.00,Tuesday
8,11.766925876455913
2,3, 1, 3, 0, 6,10.00,20.00,Tuesday
8,11.766925876455913
2,3, 1, 3, 0, 6,20.00,30.00,Tuesday
8,11.773303440360614
2,3, 1, 3, 0, 6,30.00,40.00,Tuesday
8,11.615919950168515
2,3, 1, 3, 0, 6,40.00,50.00,Tuesday
8,11.608514466811667
2,3, 1, 3, 0, 6,50.00,60.00,Tuesday
8,11.698604589192819
2,3, 1, 3, 0, 6, 0.00,60.00,Tuesday
95,18.150733340073434
2,3, 1, 3, 0, 7, 0.00,10.00,Tuesday
8,11.615919950168515
2,3, 1, 3, 0, 7,10.00,20.00,Tuesday
8,11.930682210224385
2,3, 1, 3, 0, 7,20.00,30.00,Tuesday
8,12.1667307640458
2,3, 1, 3, 0, 7,30.00,40.00,Tuesday
8,12.479715414554736
2,3, 1, 3, 0, 7,40.00,50.00,Tuesday
8,12.16758769335731
2,3, 1, 3, 0, 7,50.00,60.00,Tuesday
8,12.088050623706357
2,3, 1, 3, 0, 7, 0.00,60.00,Tuesday
95,18.181885392560884
2,3, 1, 3, 0, 8, 0.00,10.00,Tuesday
8,12.321320170863915
2,3, 1, 3, 0, 8,10.00,20.00,Tuesday
8,12.395339766568366
2,3, 1, 3, 0, 8,20.00,30.00,Tuesday
8,12.547695254287188
2,3, 1, 3, 0, 8,30.00,40.00,Tuesday
8,12.714147575005324
2,3, 1, 3, 0, 8,40.00,50.00,Tuesday
8,12.796489510984176
2,3, 1, 3, 0, 8,50.00,60.00,Tuesday
8,13.11087380387401
2,3, 1, 3, 0, 8, 0.00,60.00,Tuesday
95,18.206486261172605
2,3, 1, 3, 0, 9, 0.00,10.00,Tuesday
8,13.085139726977533
2,3, 1, 3, 0, 9,10.00,20.00,Tuesday
8,13.407333252559708
2,3, 1, 3, 0, 9,20.00,30.00,Tuesday
8,13.701731314331516
2,3, 1, 3, 0, 9,30.00,40.00,Tuesday
8,13.717818045924439
2,3, 1, 3, 0, 9,40.00,50.00,Tuesday
8,14.010040663095275
2,3, 1, 3, 0, 9,50.00,60.00,Tuesday
8,14.218005131842612
2,3, 1, 3, 0, 9, 0.00,60.00,Tuesday
95,18.222540538098003
2,3, 1, 3, 0,10, 0.00,10.00,Tuesday
8,14.164213151772204
2,3, 1, 3, 0,10,10.00,20.00,Tuesday
8,14.164213151772204
2,3, 1, 3, 0,10,20.00,30.00,Tuesday
8,14.010040663095275
2,3, 1, 3, 0,10,30.00,40.00,Tuesday
8,14.267240929463109
2,3, 1, 3, 0,10,40.00,50.00,Tuesday
8,14.03935359519504
2,3, 1, 3, 0,10,50.00,60.00,Tuesday
8,14.276796679448938
2,3, 1, 3, 0,10, 0.00,60.00,Tuesday
95,18.23011704695917
2,3, 1, 3, 0,11, 0.00,10.00,Tuesday
8,14.312300283410292
2,3, 1, 3, 0,11,10.00,20.00,Tuesday
8,14.416400881733069
2,3, 1, 3, 0,11,20.00,30.00,Tuesday
8,14.534906670987694
2,3, 1, 3, 0,11,30.00,40.00,Tuesday
8,14.4606975102423
2,3, 1, 3, 0,11,40.00,50.00,Tuesday
8,14.7575254639976
2,3, 1, 3, 0,11,50.00,60.00,Tuesday
8,14.806016858347434
2,3, 1, 3, 0,11, 0.00,60.00,Tuesday
95,18.232470882474357
2,3, 1, 3, 0,12, 0.00,10.00,Tuesday
8,14.878993857119742
2,3, 1, 3, 0,12,10.00,20.00,Tuesday
8,14.66008450843545
2,3, 1, 3, 0,12,20.00,30.00,Tuesday
8,14.894700314723269
2,3, 1, 3, 0,12,30.00,40.00,Tuesday
8,15.111699017284789
2,3, 1, 3, 0,12,40.00,50.00,Tuesday
8,15.25638221250721
2,3, 1, 3, 0,12,50.00,60.00,Tuesday
8,15.25638221250721
2,3, 1, 3, 0,12, 0.00,60.00,Tuesday
95,18.235136286548614
2,3, 1, 3, 0,13, 0.00,10.00,Tuesday
8,14.976621690949317
2,3, 1, 3, 0,13,10.00,20.00,Tuesday
8,15.619761521001005
2,3, 1, 3, 0,13,20.00,30.00,Tuesday
8,15.335671242657698
2,3, 1, 3, 0,13,30.00,40.00,Tuesday
8,15.330466453551705
2,3, 1, 3, 0,13,40.00,50.00,Tuesday
8,15.458524174737246
2,3, 1, 3, 0,13,50.00,60.00,Tuesday
8,15.400794960021745
2,3, 1, 3, 0,13, 0.00,60.00,Tuesday
95,18.244364907793089
2,3, 1, 3, 0,14, 0.00,10.00,Tuesday
8,15.577547436431212
2,3, 1, 3, 0,14,10.00,20.00,Tuesday
8,15.823612180500208
2,3, 1, 3, 0,14,20.00,30.00,Tuesday
8,15.577547436431212
2,3, 1, 3, 0,14,30.00,40.00,Tuesday
8,15.439712238792366
2,3, 1, 3, 0,14,40.00,50.00,Tuesday
8,15.854757339251917
2,3, 1, 3, 0,14,50.00,60.00,Tuesday
8,15.687252223644352
2,3, 1, 3, 0,14, 0.00,60.00,Tuesday
95,18.26740292682428
2,3, 1, 3, 0,15, 0.00,10.00,Tuesday
8,15.550892983652365
2,3, 1, 3, 0,15,10.00,20.00,Tuesday
8,15.694016264946323
2,3, 1, 3, 0,15,20.00,30.00,Tuesday
8,15.89153367224713
2,3, 1, 3, 0,15,30.00,40.00,Tuesday
8,15.719916567867314
2,3, 1, 3, 0,15,40.00,50.00,Tuesday
8,15.43066060937863
2,3, 1, 3, 0,15,50.00,60.00,Tuesday
8,15.477648905691888
2,3, 1, 3, 0,15, 0.00,60.00,Tuesday
95,18.30895276802968
2,3, 1, 3, 0,16, 0.00,10.00,Tuesday
8,15.506520129106504
2,3, 1, 3, 0,16,10.00,20.00,Tuesday
8,15.443247075738427
2,3, 1, 3, 0,16,20.00,30.00,Tuesday
8,15.314895716083284
2,3, 1, 3, 0,16,30.00,40.00,Tuesday
8,15.699914884654787
2,3, 1, 3, 0,16,40.00,50.00,Tuesday
8,15.507412775685872
2,3, 1, 3, 0,16,50.00,60.00,Tuesday
8,15.435580352855777
2,3, 1, 3, 0,16, 0.00,60.00,Tuesday
95,18.37282720041515
2,3, 1, 3, 0,17, 0.00,10.00,Tuesday
8,15.355786001381164
2,3, 1, 3, 0,17,10.00,20.00,Tuesday
8,15.043736687725487
2,3, 1, 3, 0,17,20.00,30.00,Tuesday
8,14.898826598090908
2,3, 1, 3, 0,17,30.00,40.00,Tuesday
8,14.775803136502569
2,3, 1, 3, 0,17,40.00,50.00,Tuesday
8,15.230978169136156
2,3, 1, 3, 0,17,50.00,60.00,Tuesday
8,15.267770258014272
2,3, 1, 3, 0,17, 0.00,60.00,Tuesday
95,18.460946148988563
2,3, 1, 3, 0,18, 0.00,10.00,Tuesday
8,15.513631728756304
2,3, 1, 3, 0,18,10.00,20.00,Tuesday
8,15.11072966423622
2,3, 1, 3, 0,18,20.00,30.00,Tuesday
8,14.960330420590586
2,3, 1, 3, 0,18,30.00,40.00,Tuesday
8,14.808016250810816
2,3, 1, 3, 0,18,40.00,50.00,Tuesday
8,14.708603484448924
2,3, 1, 3, 0,18,50.00,60.00,Tuesday
8,14.808016250810816
2,3, 1, 3, 0,18, 0.00,60.00,Tuesday
95,18.57371041417054
2,3, 1, 3, 0,19, 0.00,10.00,Tuesday
8,14.837315746196398
2,3, 1, 3, 0,19,10.00,20.00,Tuesday
8,14.626307054530545
2,3, 1, 3, 0,19,20.00,30.00,Tuesday
8,14.714282719253872
2,3, 1, 3, 0,19,30.00,40.00,Tuesday
8,14.606677365509074
2,3, 1, 3, 0,19,40.00,50.00,Tuesday
8,14.481751030714893
2,3, 1, 3, 0,19,50.00,60.00,Tuesday
8,14.612423980393743
2,3, 1, 3, 0,19, 0.00,60.00,Tuesday
95,18.709578359791747
2,3, 1, 3, 0,20, 0.00,10.00,Tuesday
8,14.672998396058743
2,3, 1, 3, 0,20,10.00,20.00,Tuesday
8,14.480361513190485
2,3, 1, 3, 0,20,20.00,30.00,Tuesday
8,14.53103440207409
2,3, 1, 3, 0,20,30.00,40.00,Tuesday
8,14.46597410815844
2,3, 1, 3, 0,20,40.00,50.00,Tuesday
8,14.277921679525296
2,3, 1, 3, 0,20,50.00,60.00,Tuesday
8,14.26819685699205
2,3, 1, 3, 0,20, 0.00,60.00,Tuesday
95,18.86658183187948
2,3, 1, 3, 0,21, 0.00,10.00,Tuesday
8,14.26819685699205
2,3, 1, 3, 0,21,10.00,20.00,Tuesday
8,14.130352042005232
2,3, 1, 3, 0,21,20.00,30.00,Tuesday
8,14.274819382238534
2,3, 1, 3, 0,21,30.00,40.00,Tuesday
8,13.996277991312973
2,3, 1, 3, 0,21,40.00,50.00,Tuesday
8,14.06591959221769
2,3, 1, 3, 0,21,50.00,60.00,Tuesday
8,13.994213315395248
2,3, 1, 3, 0,21, 0.00,60.00,Tuesday
95,19.04132868617692
2,3, 1, 3, 0,22, 0.00,10.00,Tuesday
8,13.996277991312973
2,3, 1, 3, 0,22,10.00,20.00,Tuesday
8,13.856995216175366
2,3, 1, 3, 0,22,20.00,30.00,Tuesday
8,13.856995216175366
2,3, 1, 3, 0,22,30.00,40.00,Tuesday
8,13.923881520004955
2,3, 1, 3, 0,22,40.00,50.00,Tuesday
8,13.844430794831
2,3, 1, 3, 0,22,50.00,60.00,Tuesday
8,13.844430794831
2,3, 1, 3, 0,22, 0.00,60.00,Tuesday
95,19.225158663225199
2,3, 1, 3, 0,23, 0.00,10.00,Tuesday
8,13.829798287349498
2,3, 1, 3, 0,23,10.00,20.00,Tuesday
8,13.4893291679445
2,3, 1, 3, 0,23,20.00,30.00,Tuesday
8,13.418307057017567
2,3, 1, 3, 0,23,30.00,40.00,Tuesday
8,13.4893291679445
2,3, 1, 3, 0,23,40.00,50.00,Tuesday
8,13.829798287349498
2,3, 1, 3, 0,23,50.00,60.00,Tuesday
8,13.592800934692585
2,3, 1, 3, 0,23, 0.00,60.00,Tuesday
95,19.40934677606575
2,3, 1, 3, 0,24, 0.00,10.00,Tuesday
8,13.459784343708265
2,3, 1, 3, 0,24,10.00,20.00,Tuesday
8,13.273756429423094
2,3, 1, 3, 0,24,20.00,30.00,Tuesday
8,13.592800934692585
2,3, 1, 3, 0,24,30.00,40.00,Tuesday
8,13.592800934692585
2,3, 1, 3, 0,24,40.00,50.00,Tuesday
8,13.52046777745736
2,3, 1, 3, 0,24,50.00,60.00,Tuesday
8,13.792924716013598
2,3, 1, 3, 0,24, 0.00,60.00,Tuesday
95,19.585635906325267
3,3, 1, 3, 0,Tuesday
96,44.89311255913685,41.60806465409591,24,60,46.45070051231201, 1,10
2,4, 1, 4, 0, 1, 0.00,10.00,Wednesday
8,13.792924716013598
2,4, 1, 4, 0, 1,10.00,20.00,Wednesday
8,13.792924716013598
2,4, 1, 4, 0, 1,20.00,30.00,Wednesday
8,13.792924716013598
2,4, 1, 4, 0, 1,30.00,40.00,Wednesday
8,13.792924716013598
2,4, 1, 4, 0, 1,40.00,50.00,Wednesday
8,13.792924716013598
2,4, 1, 4, 0, 1,50.00,60.00,Wednesday
8,13.867115779787918
2,4, 1, 4, 0, 1, 0.00,60.00,Wednesday
95,19.74698556566138