Program Version,EnergyPlus, Version 9.5.0-de239b2e5f, YMD=2021.12.09 16:27
1,5,Environment Title[],Latitude[deg],Longitude[deg],Time Zone[],Elevation[m]
2,8,Day of Simulation[],Month[],Day of Month[],DST Indicator[1=yes 0=no],Hour[],StartMinute[],EndMinute[],DayType
3,5,Cumulative Day of Simulation[],Month[],Day of Month[],DST Indicator[1=yes 0=no],DayType  ! When Daily Report Variables Requested
4,2,Cumulative Days of Simulation[],Month[]  ! When Monthly Report Variables Requested
5,1,Cumulative Days of Simulation[] ! When Run Period Report Variables Requested
6,1,Calendar Year of Simulation[] ! When Annual Report Variables Requested
148,1,THERMAL ZONE: JORGE,Zone Mean Air Temperature [C] !TimeStep
596,1,JORGE,Zone Thermal Comfort Fanger Model PMV [] !TimeStep
597,1,JORGE,Zone Thermal Comfort Fanger Model PPD [%] !TimeStep
End of Data Dictionary
1,RUN PERIOD 1,  18.85, -99.14,  -6.00,1280.00
2,1, 5, 3, 0, 1, 0.00,10.00,Wednesday
148,26.88938849226222
596,-30.12779219230663
597,100.0
2,1, 5, 3, 0, 1,10.00,20.00,Wednesday
148,26.780925349163299
596,-30.39022350674787
597,100.0
2,1, 5, 3, 0, 1,20.00,30.00,Wednesday
148,26.731856717057338
596,-30.533025531579705
597,100.0
2,1, 5, 3, 0, 1,30.00,40.00,Wednesday
148,26.689583860698457
596,-30.692968243984159
597,100.0
2,1, 5, 3, 0, 1,40.00,50.00,Wednesday
148,26.618016890351507
596,-30.89573434911497
597,100.0
2,1, 5, 3, 0, 1,50.00,60.00,Wednesday
148,26.501372239145629
596,-31.180820163056464
597,100.0
2,1, 5, 3, 0, 2, 0.00,10.00,Wednesday
148,26.39027635992348
596,-31.45965146920885
597,100.0
2,1, 5, 3, 0, 2,10.00,20.00,Wednesday
148,26.319232368534178
596,-31.673013943278947
597,100.0
2,1, 5, 3, 0, 2,20.00,30.00,Wednesday
148,26.15775647065903
596,-32.04280743603384
597,100.0
2,1, 5, 3, 0, 2,30.00,40.00,Wednesday
148,26.07776904752412
596,-32.25744455732524
597,100.0
2,1, 5, 3, 0, 2,40.00,50.00,Wednesday
148,26.028426000885476
596,-32.40675844379888
597,100.0
2,1, 5, 3, 0, 2,50.00,60.00,Wednesday
148,26.023806220874215
596,-32.49797071643117
597,100.0
2,1, 5, 3, 0, 3, 0.00,10.00,Wednesday
148,26.00909988643688
596,-32.611738802664358
597,100.0
2,1, 5, 3, 0, 3,10.00,20.00,Wednesday
148,26.044549086711645
596,-32.61707368155164
597,100.0
2,1, 5, 3, 0, 3,20.00,30.00,Wednesday
148,26.057472878502069
596,-32.65551342507026
597,100.0
2,1, 5, 3, 0, 3,30.00,40.00,Wednesday
148,25.998184727989515
596,-32.842998518961248
597,100.0
2,1, 5, 3, 0, 3,40.00,50.00,Wednesday
148,25.942351053282495
596,-33.00137717251436
597,100.0
2,1, 5, 3, 0, 3,50.00,60.00,Wednesday
148,25.885055655169749
596,-33.190895166631019
597,100.0
2,1, 5, 3, 0, 4, 0.00,10.00,Wednesday
148,25.831535907838224
596,-33.36384710324484
597,100.0
2,1, 5, 3, 0, 4,10.00,20.00,Wednesday
148,25.760428529126729
596,-33.55295472657096
597,100.0
2,1, 5, 3, 0, 4,20.00,30.00,Wednesday
148,25.729989980665104
596,-33.70413220799514
597,100.0
2,1, 5, 3, 0, 4,30.00,40.00,Wednesday
148,25.558971755252729
596,-34.1033308495213
597,100.0
2,1, 5, 3, 0, 4,40.00,50.00,Wednesday
148,25.32755060311518
596,-34.63975544273412
597,100.0
2,1, 5, 3, 0, 4,50.00,60.00,Wednesday
148,25.195765854608906
596,-34.95558484357059
597,100.0
2,1, 5, 3, 0, 5, 0.00,10.00,Wednesday
148,25.15163280044844
596,-35.13165714096373
597,100.0
2,1, 5, 3, 0, 5,10.00,20.00,Wednesday
148,25.202223600925419
596,-35.12013565513453
597,100.0
2,1, 5, 3, 0, 5,20.00,30.00,Wednesday
148,25.251905368204363
596,-35.07905642436599
597,100.0
2,1, 5, 3, 0, 5,30.00,40.00,Wednesday
148,25.279234837897307
596,-35.094884087709768
597,100.0
2,1, 5, 3, 0, 5,40.00,50.00,Wednesday
148,25.25002970355621
596,-35.187528745860998
597,100.0
2,1, 5, 3, 0, 5,50.00,60.00,Wednesday
148,25.117662383861146
596,-35.532975514137039
597,100.0
2,1, 5, 3, 0, 6, 0.00,10.00,Wednesday
148,24.99193812776509
596,-35.83332237282458
597,100.0
2,1, 5, 3, 0, 6,10.00,20.00,Wednesday
148,24.81490516952656
596,-36.29903078739871
597,100.0
2,1, 5, 3, 0, 6,20.00,30.00,Wednesday
148,24.732239630383448
596,-36.51909808326332
597,100.0
2,1, 5, 3, 0, 6,30.00,40.00,Wednesday
148,24.605650624813355
596,-36.89098278011602
597,100.0
2,1, 5, 3, 0, 6,40.00,50.00,Wednesday
148,24.484246091274636
596,-37.18016790590488
597,100.0
2,1, 5, 3, 0, 6,50.00,60.00,Wednesday
148,24.389722260400889
596,-37.440560230041707
597,100.0
2,1, 5, 3, 0, 7, 0.00,10.00,Wednesday
148,24.382814020822669
596,-37.5089023157804
597,100.0
2,1, 5, 3, 0, 7,10.00,20.00,Wednesday
148,24.459527341809097
596,-37.400149726944487
597,100.0
2,1, 5, 3, 0, 7,20.00,30.00,Wednesday
148,24.493111829129675
596,-37.41905058529536
597,100.0
2,1, 5, 3, 0, 7,30.00,40.00,Wednesday
148,24.326752370989128
596,-37.81525446667131
597,100.0
2,1, 5, 3, 0, 7,40.00,50.00,Wednesday
148,24.20916772601604
596,-38.0657157298884
597,100.0
2,1, 5, 3, 0, 7,50.00,60.00,Wednesday
148,24.386616283878476
596,-37.70647488957753
597,100.0
2,1, 5, 3, 0, 8, 0.00,10.00,Wednesday
148,24.516873213140785
596,-37.45890409144825
597,100.0
2,1, 5, 3, 0, 8,10.00,20.00,Wednesday
148,24.416005990246796
596,-37.658357596647508
597,100.0
2,1, 5, 3, 0, 8,20.00,30.00,Wednesday
148,24.45752456788257
596,-37.527209737865629
597,100.0
2,1, 5, 3, 0, 8,30.00,40.00,Wednesday
148,24.553662877228207
596,-37.28560368873448
597,100.0
2,1, 5, 3, 0, 8,40.00,50.00,Wednesday
148,24.696207214983106
596,-36.92253480713188
597,100.0
2,1, 5, 3, 0, 8,50.00,60.00,Wednesday
148,24.901014930559574
596,-36.424858293470418
597,100.0
2,1, 5, 3, 0, 9, 0.00,10.00,Wednesday
148,25.06928842028843
596,-35.932421547486899
597,100.0
2,1, 5, 3, 0, 9,10.00,20.00,Wednesday
148,25.2410591078745
596,-35.56827347349681
597,100.0
2,1, 5, 3, 0, 9,20.00,30.00,Wednesday
148,25.372172547773464
596,-35.27148261923031
597,100.0
2,1, 5, 3, 0, 9,30.00,40.00,Wednesday
148,25.456270003654365
596,-35.02876994103806
597,100.0
2,1, 5, 3, 0, 9,40.00,50.00,Wednesday
148,25.533561653634238
596,-34.76266183981573
597,100.0
2,1, 5, 3, 0, 9,50.00,60.00,Wednesday
148,25.613946400718406
596,-34.507787163802678
597,100.0
2,1, 5, 3, 0,10, 0.00,10.00,Wednesday
148,27.866866105029176
596,0.12455702206937529
597,5.321378785634394
2,1, 5, 3, 0,10,10.00,20.00,Wednesday
148,28.17866694470825
596,0.24560516762112434
597,6.251961376452698
2,1, 5, 3, 0,10,20.00,30.00,Wednesday
148,28.481584408371384
596,0.3244766525733991
597,7.189146358607502
2,1, 5, 3, 0,10,30.00,40.00,Wednesday
148,28.991492576378997
596,0.4699765602538968
597,9.61197860924247
2,1, 5, 3, 0,10,40.00,50.00,Wednesday
148,29.16366772390445
596,0.5479810893791692
597,11.285640506859892
2,1, 5, 3, 0,10,50.00,60.00,Wednesday
148,29.14685946583257
596,0.5759360586953857
597,11.94956597670027
2,1, 5, 3, 0,11, 0.00,10.00,Wednesday
148,29.14806339435377
596,0.5892634461933168
597,12.27802245191505
2,1, 5, 3, 0,11,10.00,20.00,Wednesday
148,29.31158641542084
596,0.6604630819698893
597,14.163329886472951
2,1, 5, 3, 0,11,20.00,30.00,Wednesday
148,29.48750369630138
596,0.735729746113663
597,16.394978565253355
2,1, 5, 3, 0,11,30.00,40.00,Wednesday
148,29.60774214513807
596,0.7952208872009369
597,18.33108381628024
2,1, 5, 3, 0,11,40.00,50.00,Wednesday
148,29.698573428368687
596,0.8449206291418928
597,20.063558624091969
2,1, 5, 3, 0,11,50.00,60.00,Wednesday
148,29.78677327039806
596,0.8839345557755292
597,21.495729742621749
2,1, 5, 3, 0,12, 0.00,10.00,Wednesday
148,29.950313712122545
596,0.9482962905946795
597,23.99403284665793
2,1, 5, 3, 0,12,10.00,20.00,Wednesday
148,30.037618662439944
596,0.9819215503493635
597,25.36467038435346
2,1, 5, 3, 0,12,20.00,30.00,Wednesday
148,30.246485975019959
596,1.0653869511904995
597,28.952284825844786
2,1, 5, 3, 0,12,30.00,40.00,Wednesday
148,30.3522615834292
596,1.1083331214559085
597,30.896029469245648
2,1, 5, 3, 0,12,40.00,50.00,Wednesday
148,30.522425635356439
596,1.174216579477198
597,33.99716934313197
2,1, 5, 3, 0,12,50.00,60.00,Wednesday
148,30.679055004130967
596,1.2347146527777498
597,36.960925146318228
2,1, 5, 3, 0,13, 0.00,10.00,Wednesday
148,30.855439457199855
596,1.3053871903776145
597,40.545864521167448
2,1, 5, 3, 0,13,10.00,20.00,Wednesday
148,30.983514060681594
596,1.3522299006281898
597,42.983917561733537
2,1, 5, 3, 0,13,20.00,30.00,Wednesday
148,31.081441739030184
596,1.4007092219819335
597,45.54960991444671
2,1, 5, 3, 0,13,30.00,40.00,Wednesday
148,31.171646628759456
596,1.4312273295495966
597,47.18282446615792
2,1, 5, 3, 0,13,40.00,50.00,Wednesday
148,31.287119921160607
596,1.4605924100124848
597,48.76484395146888
2,1, 5, 3, 0,13,50.00,60.00,Wednesday
148,31.348551389291488
596,1.4843909295548419
597,50.05298084422126
2,1, 5, 3, 0,14, 0.00,10.00,Wednesday
148,31.35153436082259
596,1.5199759144026482
597,51.986288398016899
2,1, 5, 3, 0,14,10.00,20.00,Wednesday
148,31.47538165913781
596,1.5933435397615133
597,55.98297671204217
2,1, 5, 3, 0,14,20.00,30.00,Wednesday
148,31.629451571639149
596,1.6522873938682552
597,59.18324538259263
2,1, 5, 3, 0,14,30.00,40.00,Wednesday
148,31.732330229288328
596,1.696600668842915
597,61.56958873346967
2,1, 5, 3, 0,14,40.00,50.00,Wednesday
148,31.878456465986824
596,1.754126996783811
597,64.62677221646291
2,1, 5, 3, 0,14,50.00,60.00,Wednesday
148,32.124842537150168
596,1.8237980793317186
597,68.24285310953329
2,1, 5, 3, 0,15, 0.00,10.00,Wednesday
148,31.996198495124554
596,0.8454737998342939
597,20.083424192547598
2,1, 5, 3, 0,15,10.00,20.00,Wednesday
148,32.0514241845504
596,0.9117584319359542
597,22.55527552249201
2,1, 5, 3, 0,15,20.00,30.00,Wednesday
148,32.23345805933688
596,1.0485264411434166
597,28.206902649165956
2,1, 5, 3, 0,15,30.00,40.00,Wednesday
148,32.36737908118058
596,1.144376097177559
597,32.575370346312
2,1, 5, 3, 0,15,40.00,50.00,Wednesday
148,32.439078691228278
596,1.1804051982272104
597,34.295463626233857
2,1, 5, 3, 0,15,50.00,60.00,Wednesday
148,32.55095964528672
596,1.2582058437462405
597,38.13886107860246
2,1, 5, 3, 0,16, 0.00,10.00,Wednesday
148,32.66613531931601
596,1.3474856009365178
597,42.73501494393812
2,1, 5, 3, 0,16,10.00,20.00,Wednesday
148,32.756277350584237
596,1.3933030756139607
597,45.155209340917867
2,1, 5, 3, 0,16,20.00,30.00,Wednesday
148,32.777026700044888
596,1.404501252224049
597,45.751857964785347
2,1, 5, 3, 0,16,30.00,40.00,Wednesday
148,32.81390138849244
596,1.4306958422994336
597,47.1542791264089
2,1, 5, 3, 0,16,40.00,50.00,Wednesday
148,32.87194503180653
596,1.4518201715097674
597,48.29130116173823
2,1, 5, 3, 0,16,50.00,60.00,Wednesday
148,32.75109397021433
596,1.3597036302078969
597,43.376854325852487
2,1, 5, 3, 0,17, 0.00,10.00,Wednesday
148,32.59553331373446
596,2.198504522406345
597,84.85989217495446
2,1, 5, 3, 0,17,10.00,20.00,Wednesday
148,32.44009970292007
596,2.1529630708141309
597,83.16524191428775
2,1, 5, 3, 0,17,20.00,30.00,Wednesday
148,32.27482659639702
596,2.0984849771572939
597,81.00627105273603
2,1, 5, 3, 0,17,30.00,40.00,Wednesday
148,32.09584829694478
596,2.0484264815696306
597,78.90154374786288
2,1, 5, 3, 0,17,40.00,50.00,Wednesday
148,32.0178002114546
596,2.0209234593875164
597,77.6983690649587
2,1, 5, 3, 0,17,50.00,60.00,Wednesday
148,32.09113421772007
596,2.0381049164188775
597,78.45379163835207
2,1, 5, 3, 0,18, 0.00,10.00,Wednesday
148,32.062540240291799
596,2.0225206066671306
597,77.76911589109058
2,1, 5, 3, 0,18,10.00,20.00,Wednesday
148,31.98407378150118
596,2.007039902977739
597,77.07892935745159
2,1, 5, 3, 0,18,20.00,30.00,Wednesday
148,31.96077555333034
596,2.008520494194111
597,77.14536657946599
2,1, 5, 3, 0,18,30.00,40.00,Wednesday
148,31.985842607640629
596,2.017768844102822
597,77.55832040270731
2,1, 5, 3, 0,18,40.00,50.00,Wednesday
148,32.047631190849
596,2.036180053777922
597,78.3697837141972
2,1, 5, 3, 0,18,50.00,60.00,Wednesday
148,32.11456060327088
596,2.055529790906715
597,79.20700139993002
2,1, 5, 3, 0,19, 0.00,10.00,Wednesday
148,30.600876684779867
596,-19.69435994159983
597,100.0
2,1, 5, 3, 0,19,10.00,20.00,Wednesday
148,30.14353958209636
596,-20.53760750809405
597,100.0
2,1, 5, 3, 0,19,20.00,30.00,Wednesday
148,29.88661469596945
596,-21.050654100354249
597,100.0
2,1, 5, 3, 0,19,30.00,40.00,Wednesday
148,29.38004368456339
596,-21.852999114359187
597,100.0
2,1, 5, 3, 0,19,40.00,50.00,Wednesday
148,29.12796143459486
596,-22.377182641168355
597,100.0
2,1, 5, 3, 0,19,50.00,60.00,Wednesday
148,29.068733663786778
596,-22.704328701850174
597,100.0
2,1, 5, 3, 0,20, 0.00,10.00,Wednesday
148,29.04869740022895
596,-22.888252299709309
597,100.0
2,1, 5, 3, 0,20,10.00,20.00,Wednesday
148,28.98548764472307
596,-23.120064484604478
597,100.0
2,1, 5, 3, 0,20,20.00,30.00,Wednesday
148,28.87983992327086
596,-23.39167730421261
597,100.0
2,1, 5, 3, 0,20,30.00,40.00,Wednesday
148,28.76235607888673
596,-23.709449112644145
597,100.0
2,1, 5, 3, 0,20,40.00,50.00,Wednesday
148,28.578516195552809
596,-24.190770039459644
597,100.0
2,1, 5, 3, 0,20,50.00,60.00,Wednesday
148,28.468555705113194
596,-24.57121180737291
597,100.0
2,1, 5, 3, 0,21, 0.00,10.00,Wednesday
148,28.388286202950746
596,-24.845670086242217
597,100.0
2,1, 5, 3, 0,21,10.00,20.00,Wednesday
148,28.29516540575852
596,-25.114772013037105
597,100.0
2,1, 5, 3, 0,21,20.00,30.00,Wednesday
148,28.132265124098738
596,-25.585039913592344
597,100.0
2,1, 5, 3, 0,21,30.00,40.00,Wednesday
148,27.86267069392874
596,-26.208019899376916
597,100.0
2,1, 5, 3, 0,21,40.00,50.00,Wednesday
148,27.85544442497566
596,-26.36786306503037
597,100.0
2,1, 5, 3, 0,21,50.00,60.00,Wednesday
148,27.76920168653505
596,-26.692711699203309
597,100.0
2,1, 5, 3, 0,22, 0.00,10.00,Wednesday
148,27.745132977150168
596,-26.83949925499922
597,100.0
2,1, 5, 3, 0,22,10.00,20.00,Wednesday
148,27.69510217180146
596,-27.04510967392881
597,100.0
2,1, 5, 3, 0,22,20.00,30.00,Wednesday
148,27.561151893215159
596,-27.436849969946583
597,100.0
2,1, 5, 3, 0,22,30.00,40.00,Wednesday
148,27.463231401271899
596,-27.70501240383855
597,100.0
2,1, 5, 3, 0,22,40.00,50.00,Wednesday
148,27.46309690771007
596,-27.786230962061027
597,100.0
2,1, 5, 3, 0,22,50.00,60.00,Wednesday
148,27.43495059567316
596,-27.94315594370351
597,100.0
2,1, 5, 3, 0,23, 0.00,10.00,Wednesday
148,27.506273008228356
596,-27.918818490692034
597,100.0
2,1, 5, 3, 0,23,10.00,20.00,Wednesday
148,27.46982544328442
596,-27.996823153411403
597,100.0
2,1, 5, 3, 0,23,20.00,30.00,Wednesday
148,27.408088827935129
596,-28.19762151525519
597,100.0
2,1, 5, 3, 0,23,30.00,40.00,Wednesday
148,27.44077347680217
596,-28.280576732606887
597,100.0
2,1, 5, 3, 0,23,40.00,50.00,Wednesday
148,27.431858420809716
596,-28.370789274318665
597,100.0
2,1, 5, 3, 0,23,50.00,60.00,Wednesday
148,27.387644138625846
596,-28.487151438273697
597,100.0
2,1, 5, 3, 0,24, 0.00,10.00,Wednesday
148,27.3700392052011
596,-28.58092468894424
597,100.0
2,1, 5, 3, 0,24,10.00,20.00,Wednesday
148,27.351533610900998
596,-28.692108201329807
597,100.0
2,1, 5, 3, 0,24,20.00,30.00,Wednesday
148,27.284437286853775
596,-28.881031612075064
597,100.0
2,1, 5, 3, 0,24,30.00,40.00,Wednesday
148,27.232356845379408
596,-29.036990941721766
597,100.0
2,1, 5, 3, 0,24,40.00,50.00,Wednesday
148,27.143460351436649
596,-29.262750425196776
597,100.0
2,1, 5, 3, 0,24,50.00,60.00,Wednesday
148,27.084580681485144
596,-29.433984304158643
597,100.0
2,2, 5, 4, 0, 1, 0.00,10.00,Thursday
148,27.14875314219862
596,-29.41834124604693
597,100.0
2,2, 5, 4, 0, 1,10.00,20.00,Thursday
148,27.154208064235804
596,-29.511814447773376
597,100.0
2,2, 5, 4, 0, 1,20.00,30.00,Thursday
148,27.0688385485426
596,-29.726172664968293
597,100.0
2,2, 5, 4, 0, 1,30.00,40.00,Thursday
148,26.929627892771298
596,-30.05592674711904
597,100.0
2,2, 5, 4, 0, 1,40.00,50.00,Thursday
148,26.869043134863099
596,-30.215733274168544
597,100.0
2,2, 5, 4, 0, 1,50.00,60.00,Thursday
148,26.86661562012297
596,-30.283066658783136
597,100.0
2,2, 5, 4, 0, 2, 0.00,10.00,Thursday
148,26.88579711771979
596,-30.311861901646848
597,100.0
2,2, 5, 4, 0, 2,10.00,20.00,Thursday
148,26.85878541486258
596,-30.421657612477227
597,100.0
2,2, 5, 4, 0, 2,20.00,30.00,Thursday
148,26.8332694492663
596,-30.512215429649605
597,100.0
2,2, 5, 4, 0, 2,30.00,40.00,Thursday
148,26.782488772322844
596,-30.664345858663716
597,100.0
2,2, 5, 4, 0, 2,40.00,50.00,Thursday
148,26.72205019082018
596,-30.82387001461578
597,100.0
2,2, 5, 4, 0, 2,50.00,60.00,Thursday
148,26.67022275191027
596,-30.981056786360545
597,100.0
2,2, 5, 4, 0, 3, 0.00,10.00,Thursday
148,26.6443106698645
596,-31.10487389865625
597,100.0
2,2, 5, 4, 0, 3,10.00,20.00,Thursday
148,26.559773714854989
596,-31.346274833986997
597,100.0
2,2, 5, 4, 0, 3,20.00,30.00,Thursday
148,26.52596178066615
596,-31.4906321346095
597,100.0
2,2, 5, 4, 0, 3,30.00,40.00,Thursday
148,26.415091988212155
596,-31.764186233764577
597,100.0
2,2, 5, 4, 0, 3,40.00,50.00,Thursday
148,26.3056459938134
596,-32.01922561653332
597,100.0
2,2, 5, 4, 0, 3,50.00,60.00,Thursday
148,26.283192590617273
596,-32.15896373670869
597,100.0
2,2, 5, 4, 0, 4, 0.00,10.00,Thursday
148,26.21095615509263
596,-32.38459045981768
597,100.0
2,2, 5, 4, 0, 4,10.00,20.00,Thursday
148,26.107647226925413
596,-32.65360571952331
597,100.0
2,2, 5, 4, 0, 4,20.00,30.00,Thursday
148,26.04242696620232
596,-32.85339786934437
597,100.0
2,2, 5, 4, 0, 4,30.00,40.00,Thursday
148,25.947437303122908
596,-33.10271740979218
597,100.0
2,2, 5, 4, 0, 4,40.00,50.00,Thursday
148,25.86224222266493
596,-33.311382722968499
597,100.0
2,2, 5, 4, 0, 4,50.00,60.00,Thursday
148,25.846889315143458
596,-33.3844881665064
597,100.0
2,2, 5, 4, 0, 5, 0.00,10.00,Thursday
148,25.767925210734476
596,-33.62917286293133
597,100.0
2,2, 5, 4, 0, 5,10.00,20.00,Thursday
148,25.676257578729535
596,-33.87146470860621
597,100.0
2,2, 5, 4, 0, 5,20.00,30.00,Thursday
148,25.587365050037144
596,-34.061831104289208
597,100.0
2,2, 5, 4, 0, 5,30.00,40.00,Thursday
148,25.543596337597596
596,-34.198350982388877
597,100.0
2,2, 5, 4, 0, 5,40.00,50.00,Thursday
148,25.51894780674099
596,-34.344961724052577
597,100.0
2,2, 5, 4, 0, 5,50.00,60.00,Thursday
148,25.456235020848497
596,-34.543875633221819
597,100.0
2,2, 5, 4, 0, 6, 0.00,10.00,Thursday
148,25.428057565073279
596,-34.63558896645594
597,100.0
2,2, 5, 4, 0, 6,10.00,20.00,Thursday
148,25.260891397794308
596,-35.06102013624047
597,100.0
2,2, 5, 4, 0, 6,20.00,30.00,Thursday
148,25.195547935926684
596,-35.2542221454828
597,100.0
2,2, 5, 4, 0, 6,30.00,40.00,Thursday
148,25.01208836978095
596,-35.70794103577069
597,100.0
2,2, 5, 4, 0, 6,40.00,50.00,Thursday
148,24.839005148433875
596,-36.09837497799479
597,100.0
2,2, 5, 4, 0, 6,50.00,60.00,Thursday
148,24.81000715288768
596,-36.169874675446049
597,100.0
2,2, 5, 4, 0, 7, 0.00,10.00,Thursday
148,24.921229575037154
596,-36.01205565561102
597,100.0
2,2, 5, 4, 0, 7,10.00,20.00,Thursday
148,25.044967501206039
596,-35.822439628844
597,100.0
2,2, 5, 4, 0, 7,20.00,30.00,Thursday
148,24.957928215971895
596,-36.03082186688447
597,100.0
2,2, 5, 4, 0, 7,30.00,40.00,Thursday
148,24.997320260886718
596,-36.0174773371989
597,100.0
2,2, 5, 4, 0, 7,40.00,50.00,Thursday
148,25.04757506053031
596,-35.92525522671474
597,100.0
2,2, 5, 4, 0, 7,50.00,60.00,Thursday
148,25.07855694607321
596,-35.87413110825589
597,100.0
2,2, 5, 4, 0, 8, 0.00,10.00,Thursday
148,25.085294441573699
596,-35.869487906167687
597,100.0
2,2, 5, 4, 0, 8,10.00,20.00,Thursday
148,25.066527360634394
596,-35.88938316023781
597,100.0
2,2, 5, 4, 0, 8,20.00,30.00,Thursday
148,25.04107158206422
596,-35.917711692944248
597,100.0
2,2, 5, 4, 0, 8,30.00,40.00,Thursday
148,25.078470743103155
596,-35.78540230639023
597,100.0
2,2, 5, 4, 0, 8,40.00,50.00,Thursday
148,25.181072073956075
596,-35.503180646335469
597,100.0
2,2, 5, 4, 0, 8,50.00,60.00,Thursday
148,25.340239328172808
596,-35.13604313944621
597,100.0
2,2, 5, 4, 0, 9, 0.00,10.00,Thursday
148,25.4112499880138
596,-34.93602899674673
597,100.0
2,2, 5, 4, 0, 9,10.00,20.00,Thursday
148,25.491405601590544
596,-34.79690387265551
597,100.0
2,2, 5, 4, 0, 9,20.00,30.00,Thursday
148,25.625763309551276
596,-34.40525159287501
597,100.0
2,2, 5, 4, 0, 9,30.00,40.00,Thursday
148,25.76833165322356
596,-34.037807051585549
597,100.0
2,2, 5, 4, 0, 9,40.00,50.00,Thursday
148,25.88847314184669
596,-33.688142037138209
597,100.0
2,2, 5, 4, 0, 9,50.00,60.00,Thursday
148,25.951275644855366
596,-33.56758880590033
597,100.0
2,2, 5, 4, 0,10, 0.00,10.00,Thursday
148,28.066922730098506
596,0.17819980358939106
597,5.658268764234961
2,2, 5, 4, 0,10,10.00,20.00,Thursday
148,28.289479061027977
596,0.2713300322918797
597,6.528800020992037
2,2, 5, 4, 0,10,20.00,30.00,Thursday
148,28.584453931455628
596,0.352656785919152
597,7.587823337403378
2,2, 5, 4, 0,10,30.00,40.00,Thursday
148,29.027078858469559
596,0.47585447666118549
597,9.728937537761113
2,2, 5, 4, 0,10,40.00,50.00,Thursday
148,29.18169338640454
596,0.5487448325883562
597,11.303329038844368
2,2, 5, 4, 0,10,50.00,60.00,Thursday
148,29.23506120412174
596,0.598623126692892
597,12.513301369167323
2,2, 5, 4, 0,11, 0.00,10.00,Thursday
148,29.31867200517068
596,0.64982804121165
597,13.867753721493117
2,2, 5, 4, 0,11,10.00,20.00,Thursday
148,29.421096815975237
596,0.7011803315552886
597,15.340229299965984
2,2, 5, 4, 0,11,20.00,30.00,Thursday
148,29.505901888039817
596,0.7372359864001101
597,16.442130386460336
2,2, 5, 4, 0,11,30.00,40.00,Thursday
148,29.648126945446156
596,0.7962164698668042
597,18.3647666652827
2,2, 5, 4, 0,11,40.00,50.00,Thursday
148,29.778561736750175
596,0.8436650721554404
597,20.018516152939016
2,2, 5, 4, 0,11,50.00,60.00,Thursday
148,29.89093978387119
596,0.8975834229460176
597,22.01154965977568
2,2, 5, 4, 0,12, 0.00,10.00,Thursday
148,30.06375699574005
596,0.9677330687143917
597,24.780943985684844
2,2, 5, 4, 0,12,10.00,20.00,Thursday
148,30.218727156600865
596,1.0228212669939983
597,27.090369874239785
2,2, 5, 4, 0,12,20.00,30.00,Thursday
148,30.356815996466464
596,1.0828908750405735
597,29.736792363908834
2,2, 5, 4, 0,12,30.00,40.00,Thursday
148,30.550009371235328
596,1.149977628478639
597,32.84014070950239
2,2, 5, 4, 0,12,40.00,50.00,Thursday
148,30.60923849435304
596,1.1812659809980184
597,34.33704499367629
2,2, 5, 4, 0,12,50.00,60.00,Thursday
148,30.648380686282886
596,1.202034495491044
597,35.34693533301413
2,2, 5, 4, 0,13, 0.00,10.00,Thursday
148,30.799733132741435
596,1.262255956482474
597,38.34337935170024
2,2, 5, 4, 0,13,10.00,20.00,Thursday
148,30.999802388613877
596,1.3453689201259587
597,42.62410251976701
2,2, 5, 4, 0,13,20.00,30.00,Thursday
148,31.116596149450595
596,1.3855524531242809
597,44.74335415207319
2,2, 5, 4, 0,13,30.00,40.00,Thursday
148,31.235470794701436
596,1.4317327507985687
597,47.20997296809763
2,2, 5, 4, 0,13,40.00,50.00,Thursday
148,31.33277246317735
596,1.4686835882645946
597,49.202260442783209
2,2, 5, 4, 0,13,50.00,60.00,Thursday
148,31.47558856123496
596,1.5231922163505288
597,52.16133300901843
2,2, 5, 4, 0,14, 0.00,10.00,Thursday
148,31.56550103174311
596,1.5701174780307024
597,54.71777716122662
2,2, 5, 4, 0,14,10.00,20.00,Thursday
148,31.63225477894793
596,1.5916985741899162
597,55.89341238929366
2,2, 5, 4, 0,14,20.00,30.00,Thursday
148,31.678910617050346
596,1.608374910279164
597,56.800941962277587
2,2, 5, 4, 0,14,30.00,40.00,Thursday
148,31.72589515918763
596,1.6287326959400855
597,57.907006768224949
2,2, 5, 4, 0,14,40.00,50.00,Thursday
148,31.76505910772336
596,1.6393839033149487
597,58.4846477043327
2,2, 5, 4, 0,14,50.00,60.00,Thursday
148,31.92938784509542
596,1.7185724937645042
597,62.74354636236792
2,2, 5, 4, 0,15, 0.00,10.00,Thursday
148,32.10415952020338
596,0.8770828434873685
597,21.23966277043752
2,2, 5, 4, 0,15,10.00,20.00,Thursday
148,32.119194767447037
596,0.8911910374218018
597,21.769020878083468
2,2, 5, 4, 0,15,20.00,30.00,Thursday
148,32.141964737767349
596,0.9015023902065386
597,22.161058675261346
2,2, 5, 4, 0,15,30.00,40.00,Thursday
148,32.17038450608357
596,0.9121601421115061
597,22.570802845481866
2,2, 5, 4, 0,15,40.00,50.00,Thursday
148,32.20610393618307
596,0.951712482436369
597,24.131265468723016
2,2, 5, 4, 0,15,50.00,60.00,Thursday
148,32.293037904143137
596,1.0160341643816247
597,26.799635357837944
2,2, 5, 4, 0,16, 0.00,10.00,Thursday
148,32.451333351791948
596,1.1244905149206824
597,31.643573249421494
2,2, 5, 4, 0,16,10.00,20.00,Thursday
148,32.60155208229541
596,1.2286346368821819
597,36.65842127894202
2,2, 5, 4, 0,16,20.00,30.00,Thursday
148,32.7345873096546
596,1.2997562330375546
597,40.25588107346234
2,2, 5, 4, 0,16,30.00,40.00,Thursday
148,32.780300233384149
596,1.3386339445818872
597,42.27176410848052
2,2, 5, 4, 0,16,40.00,50.00,Thursday
148,32.784436731198869
596,1.3227324662647729
597,41.44343184709978
2,2, 5, 4, 0,16,50.00,60.00,Thursday
148,32.764520640976218
596,1.304982135853957
597,40.52498159896766
2,2, 5, 4, 0,17, 0.00,10.00,Thursday
148,32.795584471262937
596,2.18565018271787
597,84.39194439860305
2,2, 5, 4, 0,17,10.00,20.00,Thursday
148,32.85835964438754
596,2.206895211745847
597,85.16089686163358
2,2, 5, 4, 0,17,20.00,30.00,Thursday
148,32.82124398580255
596,2.1964128376644087
597,84.78430755212922
2,2, 5, 4, 0,17,30.00,40.00,Thursday
148,32.86751079291952
596,2.2085554338108688
597,85.22003700369204
2,2, 5, 4, 0,17,40.00,50.00,Thursday
148,32.84782413971805
596,2.202144008864303
597,84.99088665120067
2,2, 5, 4, 0,17,50.00,60.00,Thursday
148,32.825083084262008
596,2.1681854444949759
597,83.74304067945947
2,2, 5, 4, 0,18, 0.00,10.00,Thursday
148,32.786600965599699
596,2.161501167535527
597,83.49071702672771
2,2, 5, 4, 0,18,10.00,20.00,Thursday
148,32.80272861365572
596,2.169031953610539
597,83.77483924396982
2,2, 5, 4, 0,18,20.00,30.00,Thursday
148,32.84852091662337
596,2.185260212470744
597,84.3776195712491
2,2, 5, 4, 0,18,30.00,40.00,Thursday
148,32.924277349947129
596,2.199574876080456
597,84.8984856980397
2,2, 5, 4, 0,18,40.00,50.00,Thursday
148,32.98146686732571
596,2.20737059160208
597,85.17784489290152
2,2, 5, 4, 0,18,50.00,60.00,Thursday
148,32.941257026245917
596,2.188065612351558
597,84.48050256075924
2,2, 5, 4, 0,19, 0.00,10.00,Thursday
148,31.43888768629437
596,-18.037376700066134
597,100.0
2,2, 5, 4, 0,19,10.00,20.00,Thursday
148,30.93998938022782
596,-18.896798745882874
597,100.0
2,2, 5, 4, 0,19,20.00,30.00,Thursday
148,30.736919528335898
596,-19.202304034252778
597,100.0
2,2, 5, 4, 0,19,30.00,40.00,Thursday
148,30.256252475942778
596,-19.995341577779528
597,100.0
2,2, 5, 4, 0,19,40.00,50.00,Thursday
148,30.108742143727267
596,-20.3579778053443
597,100.0
2,2, 5, 4, 0,19,50.00,60.00,Thursday
148,30.054238105502728
596,-20.65441651586653
597,100.0
2,2, 5, 4, 0,20, 0.00,10.00,Thursday
148,29.98301785871611
596,-20.910016191330177
597,100.0
2,2, 5, 4, 0,20,10.00,20.00,Thursday
148,29.880625325060075
596,-21.19961201664997
597,100.0
2,2, 5, 4, 0,20,20.00,30.00,Thursday
148,29.775593472244606
596,-21.486039683390098
597,100.0
2,2, 5, 4, 0,20,30.00,40.00,Thursday
148,29.68741420759751
596,-21.73341263646879
597,100.0
2,2, 5, 4, 0,20,40.00,50.00,Thursday
148,29.610156160631946
596,-21.96163763603785
597,100.0
2,2, 5, 4, 0,20,50.00,60.00,Thursday
148,29.552463962676275
596,-22.123379740407118
597,100.0
2,2, 5, 4, 0,21, 0.00,10.00,Thursday
148,29.498714660290547
596,-22.290778705883619
597,100.0
2,2, 5, 4, 0,21,10.00,20.00,Thursday
148,29.448613692943107
596,-22.438431661723823
597,100.0
2,2, 5, 4, 0,21,20.00,30.00,Thursday
148,29.389672864829835
596,-22.622970401739296
597,100.0
2,2, 5, 4, 0,21,30.00,40.00,Thursday
148,29.345856418993944
596,-22.748391497318378
597,100.0
2,2, 5, 4, 0,21,40.00,50.00,Thursday
148,29.303950489850377
596,-22.88885311051591
597,100.0
2,2, 5, 4, 0,21,50.00,60.00,Thursday
148,29.23793206437095
596,-23.092651048884436
597,100.0
2,2, 5, 4, 0,22, 0.00,10.00,Thursday
148,29.1577485620833
596,-23.30766907685898
597,100.0
2,2, 5, 4, 0,22,10.00,20.00,Thursday
148,29.08751280250512
596,-23.473271986386569
597,100.0
2,2, 5, 4, 0,22,20.00,30.00,Thursday
148,28.988952451861104
596,-23.747524143123127
597,100.0
2,2, 5, 4, 0,22,30.00,40.00,Thursday
148,28.94613922221397
596,-23.832796227810005
597,100.0
2,2, 5, 4, 0,22,40.00,50.00,Thursday
148,28.91609528746379
596,-23.96326683420709
597,100.0
2,2, 5, 4, 0,22,50.00,60.00,Thursday
148,28.895162988411849
596,-24.092478044730379
597,100.0
2,2, 5, 4, 0,23, 0.00,10.00,Thursday
148,28.850486582688434
596,-24.243006408116078
597,100.0
2,2, 5, 4, 0,23,10.00,20.00,Thursday
148,28.790927655675739
596,-24.45307816408854
597,100.0
2,2, 5, 4, 0,23,20.00,30.00,Thursday
148,28.716958164942445
596,-24.665934351530337
597,100.0
2,2, 5, 4, 0,23,30.00,40.00,Thursday
148,28.660660652797064
596,-24.864766493424129
597,100.0
2,2, 5, 4, 0,23,40.00,50.00,Thursday
148,28.577667429714979
596,-25.090184675496606
597,100.0
2,2, 5, 4, 0,23,50.00,60.00,Thursday
148,28.513306525176956
596,-25.234595290460566
597,100.0
2,2, 5, 4, 0,24, 0.00,10.00,Thursday
148,28.480523260638546
596,-25.33169810165413
597,100.0
2,2, 5, 4, 0,24,10.00,20.00,Thursday
148,28.43001881313864
596,-25.4896986490894
597,100.0
2,2, 5, 4, 0,24,20.00,30.00,Thursday
148,28.380509683484694
596,-25.65350759022562
597,100.0
2,2, 5, 4, 0,24,30.00,40.00,Thursday
148,28.33673478682586
596,-25.807602326762014
597,100.0
2,2, 5, 4, 0,24,40.00,50.00,Thursday
148,28.275821894910267
596,-26.03622271355381
597,100.0
2,2, 5, 4, 0,24,50.00,60.00,Thursday
148,28.183161691751175
596,-26.256705751254548
597,100.0
2,3, 5, 5, 0, 1, 0.00,10.00,Friday
148,28.088339543686666
596,-26.51577985300434
597,100.0
2,3, 5, 5, 0, 1,10.00,20.00,Friday
148,28.058656022589447
596,-26.61542539478196
597,100.0
2,3, 5, 5, 0, 1,20.00,30.00,Friday
148,28.00657577186289
596,-26.779708222391123
597,100.0
2,3, 5, 5, 0, 1,30.00,40.00,Friday
148,27.968912160275975
596,-26.897331037563874
597,100.0
2,3, 5, 5, 0, 1,40.00,50.00,Friday
148,27.908146362903279
596,-27.10450086820245
597,100.0
2,3, 5, 5, 0, 1,50.00,60.00,Friday
148,27.86425925399596
596,-27.237066943253475
597,100.0
2,3, 5, 5, 0, 2, 0.00,10.00,Friday
148,27.80805996103769
596,-27.418554421973878
597,100.0
2,3, 5, 5, 0, 2,10.00,20.00,Friday
148,27.735881526866068
596,-27.652525097580154
597,100.0
2,3, 5, 5, 0, 2,20.00,30.00,Friday
148,27.636625300437737
596,-27.93018193281899
597,100.0
2,3, 5, 5, 0, 2,30.00,40.00,Friday
148,27.440241330932645
596,-28.422792489187605
597,100.0