Program Version,EnergyPlus, Version 9.5.0-de239b2e5f, YMD=2021.12.08 22:33
1,5,Environment Title[],Latitude[deg],Longitude[deg],Time Zone[],Elevation[m]
2,8,Day of Simulation[],Month[],Day of Month[],DST Indicator[1=yes 0=no],Hour[],StartMinute[],EndMinute[],DayType
3,5,Cumulative Day of Simulation[],Month[],Day of Month[],DST Indicator[1=yes 0=no],DayType  ! When Daily Report Variables Requested
4,2,Cumulative Days of Simulation[],Month[]  ! When Monthly Report Variables Requested
5,1,Cumulative Days of Simulation[] ! When Run Period Report Variables Requested
6,1,Calendar Year of Simulation[] ! When Annual Report Variables Requested
148,1,THERMAL ZONE: JORGE,Zone Mean Air Temperature [C] !TimeStep
596,1,JORGE,Zone Thermal Comfort Fanger Model PMV [] !TimeStep
597,1,JORGE,Zone Thermal Comfort Fanger Model PPD [%] !TimeStep
End of Data Dictionary
1,RUN PERIOD 1,  18.85, -99.14,  -6.00,1280.00
2,1, 5, 3, 0, 1, 0.00,10.00,Wednesday
148,26.884478589544714
596,-30.145081869255369
597,100.0
2,1, 5, 3, 0, 1,10.00,20.00,Wednesday
148,26.775819425600838
596,-30.407772508418547
597,100.0
2,1, 5, 3, 0, 1,20.00,30.00,Wednesday
148,26.726712532283377
596,-30.55052000868784
597,100.0
2,1, 5, 3, 0, 1,30.00,40.00,Wednesday
148,26.684500902771917
596,-30.71021454044179
597,100.0
2,1, 5, 3, 0, 1,40.00,50.00,Wednesday
148,26.613020380010715
596,-30.912680777845588
597,100.0
2,1, 5, 3, 0, 1,50.00,60.00,Wednesday
148,26.49649907852907
596,-31.197388685784309
597,100.0
2,1, 5, 3, 0, 2, 0.00,10.00,Wednesday
148,26.385504118027645
596,-31.475888400064219
597,100.0
2,1, 5, 3, 0, 2,10.00,20.00,Wednesday
148,26.31454360352875
596,-31.68895652815355
597,100.0
2,1, 5, 3, 0, 2,20.00,30.00,Wednesday
148,26.153216948984203
596,-32.05832620777351
597,100.0
2,1, 5, 3, 0, 2,30.00,40.00,Wednesday
148,26.0733326338789
596,-32.2726296711739
597,100.0
2,1, 5, 3, 0, 2,40.00,50.00,Wednesday
148,26.02406916403232
596,-32.42165962809756
597,100.0
2,1, 5, 3, 0, 2,50.00,60.00,Wednesday
148,26.02012637215886
596,-32.511557126216697
597,100.0
2,1, 5, 3, 0, 3, 0.00,10.00,Wednesday
148,26.005046656795775
596,-32.625834903232028
597,100.0
2,1, 5, 3, 0, 3,10.00,20.00,Wednesday
148,26.040336623580197
596,-32.631395690852468
597,100.0
2,1, 5, 3, 0, 3,20.00,30.00,Wednesday
148,26.053257310478914
596,-32.66975050721044
597,100.0
2,1, 5, 3, 0, 3,30.00,40.00,Wednesday
148,25.994052396685075
596,-32.856968380553627
597,100.0
2,1, 5, 3, 0, 3,40.00,50.00,Wednesday
148,25.938277740198566
596,-33.015163070754088
597,100.0
2,1, 5, 3, 0, 3,50.00,60.00,Wednesday
148,25.88103375691207
596,-33.204490245088077
597,100.0
2,1, 5, 3, 0, 4, 0.00,10.00,Wednesday
148,25.827521460075283
596,-33.37731391012734
597,100.0
2,1, 5, 3, 0, 4,10.00,20.00,Wednesday
148,25.756477348194545
596,-33.56620495333422
597,100.0
2,1, 5, 3, 0, 4,20.00,30.00,Wednesday
148,25.726072844682727
596,-33.71723832578154
597,100.0
2,1, 5, 3, 0, 4,30.00,40.00,Wednesday
148,25.555203892981284
596,-34.116061554955688
597,100.0
2,1, 5, 3, 0, 4,40.00,50.00,Wednesday
148,25.32391328020853
596,-34.65214887229822
597,100.0
2,1, 5, 3, 0, 4,50.00,60.00,Wednesday
148,25.192175507362327
596,-34.96778872428395
597,100.0
2,1, 5, 3, 0, 5, 0.00,10.00,Wednesday
148,25.14808524637462
596,-35.143689889884338
597,100.0
2,1, 5, 3, 0, 5,10.00,20.00,Wednesday
148,25.198629234943163
596,-35.132184024721599
597,100.0
2,1, 5, 3, 0, 5,20.00,30.00,Wednesday
148,25.248311769314609
596,-35.091024299454698
597,100.0
2,1, 5, 3, 0, 5,30.00,40.00,Wednesday
148,25.27574422008801
596,-35.10660058967845
597,100.0
2,1, 5, 3, 0, 5,40.00,50.00,Wednesday
148,25.246586623473907
596,-35.19906252549214
597,100.0
2,1, 5, 3, 0, 5,50.00,60.00,Wednesday
148,25.11433013561858
596,-35.5442182554171
597,100.0
2,1, 5, 3, 0, 6, 0.00,10.00,Wednesday
148,24.988709703517264
596,-35.84429084869758
597,100.0
2,1, 5, 3, 0, 6,10.00,20.00,Wednesday
148,24.811725564187179
596,-36.309842246222398
597,100.0
2,1, 5, 3, 0, 6,20.00,30.00,Wednesday
148,24.729054812568003
596,-36.52984754124104
597,100.0
2,1, 5, 3, 0, 6,30.00,40.00,Wednesday
148,24.60249433286058
596,-36.901601476711018
597,100.0
2,1, 5, 3, 0, 6,40.00,50.00,Wednesday
148,24.481141699946563
596,-37.19061916481238
597,100.0
2,1, 5, 3, 0, 6,50.00,60.00,Wednesday
148,24.386671382893707
596,-37.450837915618219
597,100.0
2,1, 5, 3, 0, 7, 0.00,10.00,Wednesday
148,24.379788238002257
596,-37.51906315953911
597,100.0
2,1, 5, 3, 0, 7,10.00,20.00,Wednesday
148,24.45652002272029
596,-37.41020216832072
597,100.0
2,1, 5, 3, 0, 7,20.00,30.00,Wednesday
148,24.490109811600307
596,-37.429030870198328
597,100.0
2,1, 5, 3, 0, 7,30.00,40.00,Wednesday
148,24.323881826195057
596,-37.824914616951229
597,100.0
2,1, 5, 3, 0, 7,40.00,50.00,Wednesday
148,24.20638521509925
596,-38.075147562489629
597,100.0
2,1, 5, 3, 0, 7,50.00,60.00,Wednesday
148,24.383774967311635
596,-37.7159640593783
597,100.0
2,1, 5, 3, 0, 8, 0.00,10.00,Wednesday
148,24.514049177328908
596,-37.468269806398208
597,100.0
2,1, 5, 3, 0, 8,10.00,20.00,Wednesday
148,24.413274344227668
596,-37.66748284092222
597,100.0
2,1, 5, 3, 0, 8,20.00,30.00,Wednesday
148,24.4548448403785
596,-37.53616494723853
597,100.0
2,1, 5, 3, 0, 8,30.00,40.00,Wednesday
148,24.551044784302769
596,-37.29437426959154
597,100.0
2,1, 5, 3, 0, 8,40.00,50.00,Wednesday
148,24.693652834406924
596,-36.93111631581671
597,100.0
2,1, 5, 3, 0, 8,50.00,60.00,Wednesday
148,24.89848645071215
596,-36.43332395347538
597,100.0
2,1, 5, 3, 0, 9, 0.00,10.00,Wednesday
148,25.066703717332567
596,-35.94094090775703
597,100.0
2,1, 5, 3, 0, 9,10.00,20.00,Wednesday
148,25.23851717715189
596,-35.57665477188403
597,100.0
2,1, 5, 3, 0, 9,20.00,30.00,Wednesday
148,25.36961942412617
596,-35.27981348003987
597,100.0
2,1, 5, 3, 0, 9,30.00,40.00,Wednesday
148,25.453733024351068
596,-35.03700609546142
597,100.0
2,1, 5, 3, 0, 9,40.00,50.00,Wednesday
148,25.531050091390577
596,-34.77078519632968
597,100.0
2,1, 5, 3, 0, 9,50.00,60.00,Wednesday
148,25.611518754717957
596,-34.51568185804411
597,100.0
2,1, 5, 3, 0,10, 0.00,10.00,Wednesday
148,27.864782297893656
596,0.12377792333117167
597,5.317368230435534
2,1, 5, 3, 0,10,10.00,20.00,Wednesday
148,28.176243924652327
596,0.24476781562013376
597,6.243417885470393
2,1, 5, 3, 0,10,20.00,30.00,Wednesday
148,28.47917890075429
596,0.3236369503746397
597,7.177783890961393
2,1, 5, 3, 0,10,30.00,40.00,Wednesday
148,28.989059773550645
596,0.46913073123241685
597,9.595270857102293
2,1, 5, 3, 0,10,40.00,50.00,Wednesday
148,29.161271088656087
596,0.5471457663931201
597,11.266323111956197
2,1, 5, 3, 0,10,50.00,60.00,Wednesday
148,29.144513368905547
596,0.5751120016903728
597,11.929509907638789
2,1, 5, 3, 0,11, 0.00,10.00,Wednesday
148,29.14577332377705
596,0.5884583211495655
597,12.257961212716083
2,1, 5, 3, 0,11,10.00,20.00,Wednesday
148,29.309330554149648
596,0.6596663248664163
597,14.141016036555485
2,1, 5, 3, 0,11,20.00,30.00,Wednesday
148,29.48525106095381
596,0.7349347796262749
597,16.370131964986557
2,1, 5, 3, 0,11,30.00,40.00,Wednesday
148,29.605517810195904
596,0.794436684267753
597,18.30458199928175
2,1, 5, 3, 0,11,40.00,50.00,Wednesday
148,29.696391907481297
596,0.8441495043427035
597,20.035887126535543
2,1, 5, 3, 0,11,50.00,60.00,Wednesday
148,29.784610448961638
596,0.8831716390644138
597,21.467122219865986
2,1, 5, 3, 0,12, 0.00,10.00,Wednesday
148,29.94819913740868
596,0.9475491062314069
597,23.96407887849142
2,1, 5, 3, 0,12,10.00,20.00,Wednesday
148,30.03551769250616
596,0.9811790225681795
597,25.3339292109293
2,1, 5, 3, 0,12,20.00,30.00,Wednesday
148,30.244442086199947
596,1.0646636192591415
597,28.920098509397876
2,1, 5, 3, 0,12,30.00,40.00,Wednesday
148,30.35022963088458
596,1.107616078100424
597,30.863056631849049
2,1, 5, 3, 0,12,40.00,50.00,Wednesday
148,30.520416954725627
596,1.1735098578509545
597,33.96317865661419
2,1, 5, 3, 0,12,50.00,60.00,Wednesday
148,30.67706084401585
596,1.2340133097475244
597,36.92597995821761
2,1, 5, 3, 0,13, 0.00,10.00,Wednesday
148,30.8534607935159
596,1.3046922558536467
597,40.51003880943455
2,1, 5, 3, 0,13,10.00,20.00,Wednesday
148,30.98155461594864
596,1.3515409710117644
597,42.94774793869638
2,1, 5, 3, 0,13,20.00,30.00,Wednesday
148,31.079514548561968
596,1.4000316899818699
597,45.51349558568608
2,1, 5, 3, 0,13,30.00,40.00,Wednesday
148,31.169820126688426
596,1.4305765428334932
597,47.14787220512314
2,1, 5, 3, 0,13,40.00,50.00,Wednesday
148,31.2853306104841
596,1.459953447709486
597,48.73032650013454
2,1, 5, 3, 0,13,50.00,60.00,Wednesday
148,31.346728370801068
596,1.483747323891251
597,50.018085466010308
2,1, 5, 3, 0,14, 0.00,10.00,Wednesday
148,31.34971406822041
596,1.519337656315798
597,51.95155639556754
2,1, 5, 3, 0,14,10.00,20.00,Wednesday
148,31.47359734834907
596,1.5927163657926909
597,55.94882963145469
2,1, 5, 3, 0,14,20.00,30.00,Wednesday
148,31.627710705148617
596,1.6516728469348159
597,59.15000612909936
2,1, 5, 3, 0,14,30.00,40.00,Wednesday
148,31.730622485363118
596,1.6959972012244629
597,61.537248852790927
2,1, 5, 3, 0,14,40.00,50.00,Wednesday
148,31.87678510827537
596,1.7535330921040116
597,64.59550119983644
2,1, 5, 3, 0,14,50.00,60.00,Wednesday
148,32.12322875769094
596,1.8232153783326608
597,68.21308476116002
2,1, 5, 3, 0,15, 0.00,10.00,Wednesday
148,31.85573980956798
596,-22.020063219739748
597,100.0
2,1, 5, 3, 0,15,10.00,20.00,Wednesday
148,31.81893157086894
596,-22.00647290005116
597,100.0
2,1, 5, 3, 0,15,20.00,30.00,Wednesday
148,31.98471864419589
596,-21.40774526163241
597,100.0
2,1, 5, 3, 0,15,30.00,40.00,Wednesday
148,32.12224008179302
596,-20.897336078634394
597,100.0
2,1, 5, 3, 0,15,40.00,50.00,Wednesday
148,32.2100826194056
596,-20.697060076888087
597,100.0
2,1, 5, 3, 0,15,50.00,60.00,Wednesday
148,32.32001392960822
596,-20.299998574205259
597,100.0
2,1, 5, 3, 0,16, 0.00,10.00,Wednesday
148,32.4344569522503
596,-19.846671228067135
597,100.0
2,1, 5, 3, 0,16,10.00,20.00,Wednesday
148,32.53321268347106
596,-19.65482352325545
597,100.0
2,1, 5, 3, 0,16,20.00,30.00,Wednesday
148,32.56511270974802
596,-19.595715909689625
597,100.0
2,1, 5, 3, 0,16,30.00,40.00,Wednesday
148,32.7242004739024
596,1.2558877228688293
597,38.02198899277784
2,1, 5, 3, 0,16,40.00,50.00,Wednesday
148,32.85558185695908
596,1.3237982703182714
597,41.49879099767593
2,1, 5, 3, 0,16,50.00,60.00,Wednesday
148,32.72779999652964
596,1.2347918887736527
597,36.96477431928731
2,1, 5, 3, 0,17, 0.00,10.00,Wednesday
148,32.565545111442698
596,2.0856195348613459
597,80.47612881011695
2,1, 5, 3, 0,17,10.00,20.00,Wednesday
148,32.42346436126552
596,2.0483925700837686
597,78.90008020411139
2,1, 5, 3, 0,17,20.00,30.00,Wednesday
148,32.25741158117506
596,1.999075247011755
597,76.72000856451862
2,1, 5, 3, 0,17,30.00,40.00,Wednesday
148,32.08690181661683
596,1.9626236815961776
597,75.04528613607332
2,1, 5, 3, 0,17,40.00,50.00,Wednesday
148,32.01476549262317
596,1.9482175971381302
597,74.36942911784196
2,1, 5, 3, 0,17,50.00,60.00,Wednesday
148,32.08600335244728
596,1.9679838115183799
597,75.2947731098427
2,1, 5, 3, 0,18, 0.00,10.00,Wednesday
148,32.061514162671659
596,1.9633007103903973
597,75.07685831958077
2,1, 5, 3, 0,18,10.00,20.00,Wednesday
148,31.981652978273507
596,1.9496057667839946
597,74.43488847662604
2,1, 5, 3, 0,18,20.00,30.00,Wednesday
148,31.958630438895776
596,1.95402339884601
597,74.64273167667082
2,1, 5, 3, 0,18,30.00,40.00,Wednesday
148,31.98451938273039
596,1.9684458091314299
597,75.3162257645109
2,1, 5, 3, 0,18,40.00,50.00,Wednesday
148,32.04456816296009
596,1.9922112441247846
597,76.40863667156788
2,1, 5, 3, 0,18,50.00,60.00,Wednesday
148,32.11032805887444
596,2.016342867472816
597,77.494878599957
2,1, 5, 3, 0,19, 0.00,10.00,Wednesday
148,30.59342652247267
596,-19.87137220609135
597,100.0
2,1, 5, 3, 0,19,10.00,20.00,Wednesday
148,30.13449307065377
596,-20.711285664918607
597,100.0
2,1, 5, 3, 0,19,20.00,30.00,Wednesday
148,29.879085460028749
596,-21.216977237655969
597,100.0
2,1, 5, 3, 0,19,30.00,40.00,Wednesday
148,29.371824958444415
596,-22.007582091854919
597,100.0
2,1, 5, 3, 0,19,40.00,50.00,Wednesday
148,29.118989960359668
596,-22.518788524923257
597,100.0
2,1, 5, 3, 0,19,50.00,60.00,Wednesday
148,29.05971114833915
596,-22.833789184130376
597,100.0
2,1, 5, 3, 0,20, 0.00,10.00,Wednesday
148,29.03995538923168
596,-23.008075227666706
597,100.0
2,1, 5, 3, 0,20,10.00,20.00,Wednesday
148,28.97719450569435
596,-23.231589265942327
597,100.0
2,1, 5, 3, 0,20,20.00,30.00,Wednesday
148,28.871964987970814
596,-23.50145781709553
597,100.0
2,1, 5, 3, 0,20,30.00,40.00,Wednesday
148,28.754829185115886
596,-23.811990641874599
597,100.0
2,1, 5, 3, 0,20,40.00,50.00,Wednesday
148,28.571271055796733
596,-24.28011858464151
597,100.0
2,1, 5, 3, 0,20,50.00,60.00,Wednesday
148,28.461426895675616
596,-24.64858531027996
597,100.0
2,1, 5, 3, 0,21, 0.00,10.00,Wednesday
148,28.38127579691033
596,-24.919794492511568
597,100.0
2,1, 5, 3, 0,21,10.00,20.00,Wednesday
148,28.288297901104508
596,-25.18207808905723
597,100.0
2,1, 5, 3, 0,21,20.00,30.00,Wednesday
148,28.12565532691302
596,-25.64130239440285
597,100.0
2,1, 5, 3, 0,21,30.00,40.00,Wednesday
148,27.85686063559018
596,-26.25502527217978
597,100.0
2,1, 5, 3, 0,21,40.00,50.00,Wednesday
148,27.849608783382707
596,-26.40782521408772
597,100.0
2,1, 5, 3, 0,21,50.00,60.00,Wednesday
148,27.76342175641929
596,-26.725747216707668
597,100.0
2,1, 5, 3, 0,22, 0.00,10.00,Wednesday
148,27.739378036794226
596,-26.867536657909093
597,100.0
2,1, 5, 3, 0,22,10.00,20.00,Wednesday
148,27.68940681978652
596,-27.069949549341997
597,100.0
2,1, 5, 3, 0,22,20.00,30.00,Wednesday
148,27.555461912140957
596,-27.46149710669865
597,100.0
2,1, 5, 3, 0,22,30.00,40.00,Wednesday
148,27.45749643514166
596,-27.729239716141096
597,100.0
2,1, 5, 3, 0,22,40.00,50.00,Wednesday
148,27.457303568748566
596,-27.809618779229429
597,100.0
2,1, 5, 3, 0,22,50.00,60.00,Wednesday
148,27.429216487235853
596,-27.96542317401969
597,100.0
2,1, 5, 3, 0,23, 0.00,10.00,Wednesday
148,27.500329805548213
596,-27.941339682888957
597,100.0
2,1, 5, 3, 0,23,10.00,20.00,Wednesday
148,27.46416456767019
596,-28.018403880157114
597,100.0
2,1, 5, 3, 0,23,20.00,30.00,Wednesday
148,27.402681255864264
596,-28.21820954517575
597,100.0
2,1, 5, 3, 0,23,30.00,40.00,Wednesday
148,27.435104096268199
596,-28.301471346641934
597,100.0
2,1, 5, 3, 0,23,40.00,50.00,Wednesday
148,27.42608364989786
596,-28.39166408433471
597,100.0
2,1, 5, 3, 0,23,50.00,60.00,Wednesday
148,27.382083952126494
596,-28.50738560350899
597,100.0
2,1, 5, 3, 0,24, 0.00,10.00,Wednesday
148,27.364616541358307
596,-28.6005642748381
597,100.0
2,1, 5, 3, 0,24,10.00,20.00,Wednesday
148,27.346252843468407
596,-28.71122440596815
597,100.0
2,1, 5, 3, 0,24,20.00,30.00,Wednesday
148,27.279264273273374
596,-28.899665839473437
597,100.0
2,1, 5, 3, 0,24,30.00,40.00,Wednesday
148,27.227231746564546
596,-29.055252601674668
597,100.0
2,1, 5, 3, 0,24,40.00,50.00,Wednesday
148,27.13855236961802
596,-29.280318714960499
597,100.0
2,1, 5, 3, 0,24,50.00,60.00,Wednesday
148,27.079867889525134
596,-29.450921957283229
597,100.0
2,2, 5, 4, 0, 1, 0.00,10.00,Thursday
148,27.143825331336357
596,-29.435596196479609
597,100.0
2,2, 5, 4, 0, 1,10.00,20.00,Thursday
148,27.149197472972405
596,-29.529079859172279
597,100.0
2,2, 5, 4, 0, 1,20.00,30.00,Thursday
148,27.063972145258878
596,-29.742986930880798
597,100.0
2,2, 5, 4, 0, 1,30.00,40.00,Thursday
148,26.92495332105214
596,-30.072231286994325
597,100.0
2,2, 5, 4, 0, 1,40.00,50.00,Thursday
148,26.864399927202489
596,-30.23183992720656
597,100.0
2,2, 5, 4, 0, 1,50.00,60.00,Thursday
148,26.861944876904489
596,-30.299069875982729
597,100.0
2,2, 5, 4, 0, 2, 0.00,10.00,Thursday
148,26.88112518525423
596,-30.327790491627245
597,100.0
2,2, 5, 4, 0, 2,10.00,20.00,Thursday
148,26.854216429176956
596,-30.437233945116998
597,100.0
2,2, 5, 4, 0, 2,20.00,30.00,Thursday
148,26.828804041856825
596,-30.527511920756287
597,100.0
2,2, 5, 4, 0, 2,30.00,40.00,Thursday
148,26.778147520654956
596,-30.67928290505949
597,100.0
2,2, 5, 4, 0, 2,40.00,50.00,Thursday
148,26.71782870404734
596,-30.838469196739469
597,100.0
2,2, 5, 4, 0, 2,50.00,60.00,Thursday
148,26.666080060153985
596,-30.99540101058241
597,100.0
2,2, 5, 4, 0, 3, 0.00,10.00,Thursday
148,26.640188572125355
596,-31.119099635326078
597,100.0
2,2, 5, 4, 0, 3,10.00,20.00,Thursday
148,26.555716909409587
596,-31.36024583573784
597,100.0
2,2, 5, 4, 0, 3,20.00,30.00,Thursday
148,26.52188730595695
596,-31.50455955784566
597,100.0
2,2, 5, 4, 0, 3,30.00,40.00,Thursday
148,26.411102649888677
596,-31.777837720320226
597,100.0
2,2, 5, 4, 0, 3,40.00,50.00,Thursday
148,26.30170755375371
596,-32.03270544241172
597,100.0
2,2, 5, 4, 0, 3,50.00,60.00,Thursday
148,26.27927151517227
596,-32.17235056635081
597,100.0
2,2, 5, 4, 0, 4, 0.00,10.00,Thursday
148,26.207085885111146
596,-32.397792607317629
597,100.0
2,2, 5, 4, 0, 4,10.00,20.00,Thursday
148,26.103855969153114
596,-32.66657456090851
597,100.0
2,2, 5, 4, 0, 4,20.00,30.00,Thursday
148,26.038657555963366
596,-32.86624816340034
597,100.0
2,2, 5, 4, 0, 4,30.00,40.00,Thursday
148,25.943695037172288
596,-33.11542971896134
597,100.0
2,2, 5, 4, 0, 4,40.00,50.00,Thursday
148,25.858538471633918
596,-33.32393655564985
597,100.0
2,2, 5, 4, 0, 4,50.00,60.00,Thursday
148,25.8432063670422
596,-33.39689644904778
597,100.0
2,2, 5, 4, 0, 5, 0.00,10.00,Thursday
148,25.76433175037588
596,-33.64134613476669
597,100.0
2,2, 5, 4, 0, 5,10.00,20.00,Thursday
148,25.672712802549886
596,-33.88345818485066
597,100.0
2,2, 5, 4, 0, 5,20.00,30.00,Thursday
148,25.58387482308294
596,-34.07362333496989
597,100.0
2,2, 5, 4, 0, 5,30.00,40.00,Thursday
148,25.540148603065309
596,-34.20998354025526
597,100.0
2,2, 5, 4, 0, 5,40.00,50.00,Thursday
148,25.515522789032987
596,-34.35647537098183
597,100.0
2,2, 5, 4, 0, 5,50.00,60.00,Thursday
148,25.452858636837897
596,-34.55522765334865
597,100.0
2,2, 5, 4, 0, 6, 0.00,10.00,Thursday
148,25.424776495548366
596,-34.64671737534138
597,100.0
2,2, 5, 4, 0, 6,10.00,20.00,Thursday
148,25.257731392799465
596,-35.07181478413282
597,100.0
2,2, 5, 4, 0, 6,20.00,30.00,Thursday
148,25.19238864281856
596,-35.26494130060642
597,100.0
2,2, 5, 4, 0, 6,30.00,40.00,Thursday
148,25.009006979969706
596,-35.7184380720683
597,100.0
2,2, 5, 4, 0, 6,40.00,50.00,Thursday
148,24.835971989345457
596,-36.10870794045675
597,100.0
2,2, 5, 4, 0, 6,50.00,60.00,Thursday
148,24.806981310001196
596,-36.180118837615029
597,100.0
2,2, 5, 4, 0, 7, 0.00,10.00,Thursday
148,24.918169137128836
596,-36.02229866472861
597,100.0
2,2, 5, 4, 0, 7,10.00,20.00,Thursday
148,25.041935847571098
596,-35.83256190673335
597,100.0
2,2, 5, 4, 0, 7,20.00,30.00,Thursday
148,24.955020758969679
596,-36.04062963735487
597,100.0
2,2, 5, 4, 0, 7,30.00,40.00,Thursday
148,24.994438123448377
596,-36.027180843470869
597,100.0
2,2, 5, 4, 0, 7,40.00,50.00,Thursday
148,25.044703339978214
596,-35.934868085246559
597,100.0
2,2, 5, 4, 0, 7,50.00,60.00,Thursday
148,25.07573592018767
596,-35.883590452168899
597,100.0
2,2, 5, 4, 0, 8, 0.00,10.00,Thursday
148,25.082513756084276
596,-35.87880286837912
597,100.0
2,2, 5, 4, 0, 8,10.00,20.00,Thursday
148,25.063798447185698
596,-35.898527153083168
597,100.0
2,2, 5, 4, 0, 8,20.00,30.00,Thursday
148,25.038415768799273
596,-35.92664477525923
597,100.0
2,2, 5, 4, 0, 8,30.00,40.00,Thursday
148,25.07585685461347
596,-35.79418615464296
597,100.0
2,2, 5, 4, 0, 8,40.00,50.00,Thursday
148,25.17849394663084
596,-35.5118365959577
597,100.0
2,2, 5, 4, 0, 8,50.00,60.00,Thursday
148,25.33768162498635
596,-35.14460259536018
597,100.0
2,2, 5, 4, 0, 9, 0.00,10.00,Thursday
148,25.40872120466699
596,-34.944471881840239
597,100.0
2,2, 5, 4, 0, 9,10.00,20.00,Thursday
148,25.488940408374427
596,-34.80517762568987
597,100.0
2,2, 5, 4, 0, 9,20.00,30.00,Thursday
148,25.623397549847949
596,-34.41327681433921
597,100.0
2,2, 5, 4, 0, 9,30.00,40.00,Thursday
148,25.765943049491509
596,-34.045782901124479
597,100.0
2,2, 5, 4, 0, 9,40.00,50.00,Thursday
148,25.88604194850596
596,-33.69613281198948
597,100.0
2,2, 5, 4, 0, 9,50.00,60.00,Thursday
148,25.94890140710076
596,-33.57542015130207
597,100.0
2,2, 5, 4, 0,10, 0.00,10.00,Thursday
148,28.063593454912764
596,0.17714781818552728
597,5.650509134418314
2,2, 5, 4, 0,10,10.00,20.00,Thursday
148,28.28690833931433
596,0.27041965373578816
597,6.518527492448811
2,2, 5, 4, 0,10,20.00,30.00,Thursday
148,28.581890383742903
596,0.35177053714296815
597,7.574771219463926
2,2, 5, 4, 0,10,30.00,40.00,Thursday
148,29.02461499519842
596,0.47499128019344458
597,9.711668319678836
2,2, 5, 4, 0,10,40.00,50.00,Thursday
148,29.179299048072687
596,0.5478988468053135
597,11.283737250905603
2,2, 5, 4, 0,10,50.00,60.00,Thursday
148,29.232686471182427
596,0.5977825879651288
597,12.492016944444984
2,2, 5, 4, 0,11, 0.00,10.00,Thursday
148,29.31632674157283
596,0.6489995969980383
597,13.844934858652934
2,2, 5, 4, 0,11,10.00,20.00,Thursday
148,29.418804704181427
596,0.7003682705102196
597,15.316056936562945
2,2, 5, 4, 0,11,20.00,30.00,Thursday
148,29.50362927910682
596,0.7364322833935981
597,16.41695889092273
2,2, 5, 4, 0,11,30.00,40.00,Thursday
148,29.64589100708679
596,0.7954256763997063
597,18.338008874675738
2,2, 5, 4, 0,11,40.00,50.00,Thursday
148,29.776367684358897
596,0.8428879299258705
597,19.990669498976943
2,2, 5, 4, 0,11,50.00,60.00,Thursday
148,29.888762244790138
596,0.8968137236589259
597,21.982258921564239
2,2, 5, 4, 0,12, 0.00,10.00,Thursday
148,30.06162176583833
596,0.9669777201416527
597,24.75008722195885
2,2, 5, 4, 0,12,10.00,20.00,Thursday
148,30.216592094433147
596,1.0220690248568772
597,27.058062066116166
2,2, 5, 4, 0,12,20.00,30.00,Thursday
148,30.354692622229654
596,1.0821448330014794
597,29.703136442472514
2,2, 5, 4, 0,12,30.00,40.00,Thursday
148,30.547965478974719
596,1.1492543070204802
597,32.80589515140568
2,2, 5, 4, 0,12,40.00,50.00,Thursday
148,30.607181680776617
596,1.1805421344966887
597,34.302077047902788
2,2, 5, 4, 0,12,50.00,60.00,Thursday
148,30.646346676949503
596,1.2013190407639534
597,35.31193650380628
2,2, 5, 4, 0,13, 0.00,10.00,Thursday
148,30.797786887656974
596,1.2615630537768073
597,38.30836074059082
2,2, 5, 4, 0,13,10.00,20.00,Thursday
148,30.997827006075988
596,1.3446713745523944
597,42.58757026161448
2,2, 5, 4, 0,13,20.00,30.00,Thursday
148,31.114684884318089
596,1.3848753994715093
597,44.70742110866162
2,2, 5, 4, 0,13,30.00,40.00,Thursday
148,31.233560769918495
596,1.4310581767699418
597,47.17373917168313
2,2, 5, 4, 0,13,40.00,50.00,Thursday
148,31.33090528001626
596,1.4680211323940556
597,49.16642562824869
2,2, 5, 4, 0,13,50.00,60.00,Thursday
148,31.473757833700878
596,1.522541549631729
597,52.125917916295609
2,2, 5, 4, 0,14, 0.00,10.00,Thursday
148,31.563698844593377
596,1.5694775344315566
597,54.68290465883073
2,2, 5, 4, 0,14,10.00,20.00,Thursday
148,31.630503002242706
596,1.591072862119286
597,55.85934172799041
2,2, 5, 4, 0,14,20.00,30.00,Thursday
148,31.677186948419207
596,1.6077591592192678
597,56.76745299064292
2,2, 5, 4, 0,14,30.00,40.00,Thursday
148,31.724183223625209
596,1.628123396381191
597,57.87393885335987
2,2, 5, 4, 0,14,40.00,50.00,Thursday
148,31.763392323060324
596,1.6387874731416348
597,58.452323980175147
2,2, 5, 4, 0,14,50.00,60.00,Thursday
148,31.927705007639085
596,1.717975947370936
597,62.71176779304911
2,2, 5, 4, 0,15, 0.00,10.00,Thursday
148,31.96878100662673
596,-21.762982667090193
597,100.0
2,2, 5, 4, 0,15,10.00,20.00,Thursday
148,31.939085141145229
596,-21.854835466869685
597,100.0
2,2, 5, 4, 0,15,20.00,30.00,Thursday
148,31.9535147500401
596,-21.86977189037572
597,100.0
2,2, 5, 4, 0,15,30.00,40.00,Thursday
148,31.951914088872138
596,-21.999143059719047
597,100.0
2,2, 5, 4, 0,15,40.00,50.00,Thursday
148,31.977694995144025
596,-21.923521462897467
597,100.0
2,2, 5, 4, 0,15,50.00,60.00,Thursday
148,32.070787184586347
596,-21.61846909041299
597,100.0
2,2, 5, 4, 0,16, 0.00,10.00,Thursday
148,32.23074932123802
596,-21.01141781958095
597,100.0
2,2, 5, 4, 0,16,10.00,20.00,Thursday
148,32.38489188170949
596,-20.46209922642833
597,100.0
2,2, 5, 4, 0,16,20.00,30.00,Thursday
148,32.52316055194893
596,-20.14657044854851
597,100.0
2,2, 5, 4, 0,16,30.00,40.00,Thursday
148,32.699948611789448
596,1.157752892855096
597,33.20929995556588
2,2, 5, 4, 0,16,40.00,50.00,Thursday
148,32.729752834113778
596,1.1617848649661818
597,33.401476982230267
2,2, 5, 4, 0,16,50.00,60.00,Thursday
148,32.721773602138039
596,1.156961930340841
597,33.17165949610225
2,2, 5, 4, 0,17, 0.00,10.00,Thursday
148,32.76163852901834
596,2.055859120653932
597,79.22110974704981
2,2, 5, 4, 0,17,10.00,20.00,Thursday
148,32.83968330582526
596,2.0873842165647686
597,80.54929396765641
2,2, 5, 4, 0,17,20.00,30.00,Thursday
148,32.80152578837979
596,2.0809490609464369
597,80.28180354613781
2,2, 5, 4, 0,17,30.00,40.00,Thursday
148,32.8521301551055
596,2.108365040126505
597,81.40821169618987
2,2, 5, 4, 0,17,40.00,50.00,Thursday
148,32.83195716994469
596,2.105476603248401
597,81.29117345102934
2,2, 5, 4, 0,17,50.00,60.00,Thursday
148,32.81095646344689
596,2.083389428010453
597,80.3834639343117
2,2, 5, 4, 0,18, 0.00,10.00,Thursday
148,32.77242151608323
596,2.0799990664186245
597,80.2421558556739
2,2, 5, 4, 0,18,10.00,20.00,Thursday
148,32.788510851540937
596,2.0899789736377856
597,80.65661658269696
2,2, 5, 4, 0,18,20.00,30.00,Thursday
148,32.83529029719744
596,2.1107004644927778
597,81.50255752740775
2,2, 5, 4, 0,18,30.00,40.00,Thursday
148,32.91202387725442
596,2.1354952938874685
597,82.48836801064542
2,2, 5, 4, 0,18,40.00,50.00,Thursday
148,32.969543569816668
596,2.1535093897638979
597,83.1861739529182
2,2, 5, 4, 0,18,50.00,60.00,Thursday
148,32.92980443248945
596,2.14241943711222
597,82.75843604690594
2,2, 5, 4, 0,19, 0.00,10.00,Thursday
148,31.425664857022356
596,-18.24528885739871
597,100.0
2,2, 5, 4, 0,19,10.00,20.00,Thursday
148,30.926020623640459
596,-19.098085420344753
597,100.0
2,2, 5, 4, 0,19,20.00,30.00,Thursday
148,30.724002736941526
596,-19.394704799804037
597,100.0
2,2, 5, 4, 0,19,30.00,40.00,Thursday
148,30.24188611189615
596,-20.173972628501468
597,100.0
2,2, 5, 4, 0,19,40.00,50.00,Thursday
148,30.094424605353738
596,-20.523821309408129
597,100.0
2,2, 5, 4, 0,19,50.00,60.00,Thursday
148,30.041008998407766
596,-20.807204246002198
597,100.0
2,2, 5, 4, 0,20, 0.00,10.00,Thursday
148,29.97098043526729
596,-21.050265258970719
597,100.0
2,2, 5, 4, 0,20,10.00,20.00,Thursday
148,29.869368489008847
596,-21.32994334747408
597,100.0
2,2, 5, 4, 0,20,20.00,30.00,Thursday
148,29.76491779178858
596,-21.608626835347825
597,100.0
2,2, 5, 4, 0,20,30.00,40.00,Thursday
148,29.677407445318996
596,-21.84853048570062
597,100.0
2,2, 5, 4, 0,20,40.00,50.00,Thursday
148,29.60081730031846
596,-22.06933048019718
597,100.0
2,2, 5, 4, 0,20,50.00,60.00,Thursday
148,29.543522789671994
596,-22.22490897795142
597,100.0
2,2, 5, 4, 0,21, 0.00,10.00,Thursday
148,29.490203668697786
596,-22.386596142723176
597,100.0
2,2, 5, 4, 0,21,10.00,20.00,Thursday
148,29.440332645515278
596,-22.529027281200717
597,100.0
2,2, 5, 4, 0,21,20.00,30.00,Thursday
148,29.381670170990586
596,-22.707958131277996
597,100.0
2,2, 5, 4, 0,21,30.00,40.00,Thursday
148,29.338197395463696
596,-22.828033068454539
597,100.0
2,2, 5, 4, 0,21,40.00,50.00,Thursday
148,29.29642398911209
596,-22.963405307835119
597,100.0
2,2, 5, 4, 0,21,50.00,60.00,Thursday
148,29.230854926561354
596,-23.16182821539438
597,100.0
2,2, 5, 4, 0,22, 0.00,10.00,Thursday
148,29.151257956175067
596,-23.373607207359858
597,100.0
2,2, 5, 4, 0,22,10.00,20.00,Thursday
148,29.081202621054236
596,-23.53560846677806
597,100.0
2,2, 5, 4, 0,22,20.00,30.00,Thursday
148,28.982768441744797
596,-23.80552483441991
597,100.0
2,2, 5, 4, 0,22,30.00,40.00,Thursday
148,28.939661087902004
596,-23.88694876915392
597,100.0
2,2, 5, 4, 0,22,40.00,50.00,Thursday
148,28.909544440235956
596,-24.013174547428748
597,100.0
2,2, 5, 4, 0,22,50.00,60.00,Thursday
148,28.888794228203709
596,-24.139143340366414
597,100.0
2,2, 5, 4, 0,23, 0.00,10.00,Thursday
148,28.844200571175553
596,-24.289160194693346
597,100.0
2,2, 5, 4, 0,23,10.00,20.00,Thursday
148,28.784939118113507
596,-24.497298593232185
597,100.0
2,2, 5, 4, 0,23,20.00,30.00,Thursday
148,28.710996792997088
596,-24.708870436551945
597,100.0
2,2, 5, 4, 0,23,30.00,40.00,Thursday
148,28.65464351174193
596,-24.90745454663535
597,100.0
2,2, 5, 4, 0,23,40.00,50.00,Thursday
148,28.57207015372524
596,-25.13162454766145
597,100.0
2,2, 5, 4, 0,23,50.00,60.00,Thursday
148,28.508032142065067
596,-25.274447832388736
597,100.0
2,2, 5, 4, 0,24, 0.00,10.00,Thursday
148,28.475592465064243
596,-25.369614236898035
597,100.0
2,2, 5, 4, 0,24,10.00,20.00,Thursday
148,28.424389505546686
596,-25.52709736926625
597,100.0
2,2, 5, 4, 0,24,20.00,30.00,Thursday
148,28.374739749761898
596,-25.689652955892535
597,100.0
2,2, 5, 4, 0,24,30.00,40.00,Thursday
148,28.331224575051583
596,-25.842073075016616
597,100.0
2,2, 5, 4, 0,24,40.00,50.00,Thursday
148,28.270777546666467
596,-26.069663052074519
597,100.0
2,2, 5, 4, 0,24,50.00,60.00,Thursday
148,28.178280921118785
596,-26.289149888393316
597,100.0
2,3, 5, 5, 0, 1, 0.00,10.00,Friday
148,28.08339429525658
596,-26.54738289551489
597,100.0
2,3, 5, 5, 0, 1,10.00,20.00,Friday
148,28.05377773936704
596,-26.64628519184306
597,100.0
2,3, 5, 5, 0, 1,20.00,30.00,Friday
148,28.001665005720608
596,-26.809509927300377
597,100.0
2,3, 5, 5, 0, 1,30.00,40.00,Friday
148,27.96403661453538
596,-26.925939400374273
597,100.0
2,3, 5, 5, 0, 1,40.00,50.00,Friday
148,27.903355882604545
596,-27.132517920608604
597,100.0
2,3, 5, 5, 0, 1,50.00,60.00,Friday
148,27.859538779346317
596,-27.264502049730994
597,100.0
2,3, 5, 5, 0, 2, 0.00,10.00,Friday
148,27.803570176430424
596,-27.44490860786002
597,100.0
2,3, 5, 5, 0, 2,10.00,20.00,Friday
148,27.731625524730459
596,-27.677817283872323
597,100.0
2,3, 5, 5, 0, 2,20.00,30.00,Friday
148,27.632276641152854
596,-27.95489196167176
597,100.0
2,3, 5, 5, 0, 2,30.00,40.00,Friday
148,27.43599728245675
596,-28.446632546707649
597,100.0
2,3, 5, 5, 0, 2,40.00,50.00,Friday
148,27.205263304090008
596,-28.97285954452756
597,100.0
2,3, 5, 5, 0, 2,50.00,60.00,Friday
148,27.099333950617316
596,-29.270104472142628
597,100.0